#INFO: **** input file is /home/jacopo/Documents/orbital-evol-model-code/utils/run_pyscf.py ****
import pyscf
from pyscf import gto, mp, scf, mcscf
from pyscf.tools.cubegen import density

mol = gto.M(
    atom = './NiO/nio.xyz',
    basis= 'def2tzvppd',
    spin = 2,
    verbose = 4,
    output = 'output.log')
mol.cart = True
mf = mol.ROHF()
mf.chkfile = 'step4a.chk'
mf.init_guess = 'chkfile'
mf.max_cycle = 50
mf.run(max_cycle=50)
print(f"@ROHF Energy Newton = {mf.e_tot}")
mf.analyze(verbose=5)
dm = mf.make_rdm1(mf.stability()[0], mf.mo_occ)
density(mol, 'a_edens.cube', dm[0])
density(mol, 'b_edens.cube', dm[1])#INFO: ******************** input file end ********************


System: uname_result(system='Linux', node='jacopo-Zenbook-UX562UG-Q508UG', release='5.19.0-50-generic', version='#50-Ubuntu SMP PREEMPT_DYNAMIC Mon Jul 10 18:24:29 UTC 2023', machine='x86_64', processor='x86_64')  Threads 16
Python 3.8.15 (default, Nov 24 2022, 15:19:38) 
[GCC 11.2.0]
numpy 1.22.3  scipy 1.9.3
Date: Sat Aug 12 16:49:58 2023
PySCF version 2.2.1
PySCF path  /home/jacopo/anaconda3/envs/pyspinorb/lib/python3.8/site-packages/pyscf

[CONFIG] conf_file None
[INPUT] verbose = 4
[INPUT] num. atoms = 2
[INPUT] num. electrons = 36
[INPUT] charge = 0
[INPUT] spin (= nelec alpha-beta = 2S) = 2
[INPUT] symmetry False subgroup None
[INPUT] Mole.unit = angstrom
[INPUT] Symbol           X                Y                Z      unit          X                Y                Z       unit  Magmom
[INPUT]  1 Ni     0.060572580000  -0.150949040000  -0.288767580000 AA    0.114465586858  -0.285252344366  -0.545691639853 Bohr   0.0
[INPUT]  2 O     -0.234410350000   0.584159040000   1.117504250000 AA   -0.442971362263   1.103900598789   2.111776975537 Bohr   0.0

nuclear repulsion = 73.4421441533788
number of shells = 33
number of NR pGTOs = 169
number of NR cGTOs = 107
basis = def2tzvppd
ecp = {}
CPU time:         0.37


******** <class 'pyscf.scf.rohf.ROHF'> ********
method = ROHF-RHF
initial guess = chkfile
damping factor = 0
level_shift factor = 0
DIIS = <class 'pyscf.scf.diis.CDIIS'>
diis_start_cycle = 1
diis_space = 8
SCF conv_tol = 1e-09
SCF conv_tol_grad = None
SCF max_cycles = 50
direct_scf = True
direct_scf_tol = 1e-13
chkfile to save SCF result = step4a.chk
max_memory 4000 MB (current use 115 MB)
num. doubly occ = 17  num. singly occ = 2
Set gradient conv threshold to 3.16228e-05
init E= -1581.58911263877
  HOMO = -0.122949301976363  LUMO = 0.0544424980614241
cycle= 1 E= -1581.58918165358  delta_E= -6.9e-05  |g|= 0.022  |ddm|= 0.0269
  HOMO = -0.125969246464574  LUMO = 0.0532237008974348
cycle= 2 E= -1581.58920716537  delta_E= -2.55e-05  |g|= 0.0394  |ddm|= 0.0321
  HOMO = -0.124011108794307  LUMO = 0.0535262836940074
cycle= 3 E= -1581.5893292313  delta_E= -0.000122  |g|= 0.00905  |ddm|= 0.00918
  HOMO = -0.124510520197725  LUMO = 0.0537841510703739
cycle= 4 E= -1581.58928247691  delta_E= 4.68e-05  |g|= 0.00911  |ddm|= 0.00724
  HOMO = -0.127340246945177  LUMO = 0.0552247808673335
cycle= 5 E= -1581.58905982436  delta_E= 0.000223  |g|= 0.00975  |ddm|= 0.0357
  HOMO = -0.125500104208889  LUMO = 0.0541196358046315
cycle= 6 E= -1581.58923530054  delta_E= -0.000175  |g|= 0.0102  |ddm|= 0.0294
  HOMO = -0.138720051574718  LUMO = 0.05666217075562
cycle= 7 E= -1581.5882414789  delta_E= 0.000994  |g|= 0.0235  |ddm|= 0.142
  HOMO = -0.134100958197377  LUMO = 0.0573616437204558
cycle= 8 E= -1581.58881801377  delta_E= -0.000577  |g|= 0.017  |ddm|= 0.0809
  HOMO = -0.129726084269589  LUMO = 0.0532575370214217
cycle= 9 E= -1581.58972170053  delta_E= -0.000904  |g|= 0.0213  |ddm|= 0.147
  HOMO = -0.129461947190201  LUMO = 0.0526814623617088
cycle= 10 E= -1581.58988281031  delta_E= -0.000161  |g|= 0.0235  |ddm|= 0.022
  HOMO = -0.131763380175836  LUMO = 0.0525151032763833
cycle= 11 E= -1581.59009541796  delta_E= -0.000213  |g|= 0.0314  |ddm|= 0.0407
  HOMO = -0.132570293703384  LUMO = 0.0518803077343488
cycle= 12 E= -1581.59038521563  delta_E= -0.00029  |g|= 0.0343  |ddm|= 0.0317
  HOMO = -0.13334713242304  LUMO = 0.0512918158930863
cycle= 13 E= -1581.59072554737  delta_E= -0.00034  |g|= 0.0382  |ddm|= 0.0353
  HOMO = -0.133283782052758  LUMO = 0.0513691496576579
cycle= 14 E= -1581.59068522286  delta_E= 4.03e-05  |g|= 0.0378  |ddm|= 0.00375
  HOMO = -0.134068902055272  LUMO = 0.0520677898382298
cycle= 15 E= -1581.59048487075  delta_E= 0.0002  |g|= 0.0379  |ddm|= 0.0132
  HOMO = -0.133526170944711  LUMO = 0.0540280462415993
cycle= 16 E= -1581.58966666839  delta_E= 0.000818  |g|= 0.0329  |ddm|= 0.0899
  HOMO = -0.137659116567011  LUMO = 0.0573641895273443
cycle= 17 E= -1581.58877212155  delta_E= 0.000895  |g|= 0.0284  |ddm|= 0.149
  HOMO = -0.140584102087309  LUMO = 0.0503121348876552
cycle= 18 E= -1581.59210065725  delta_E= -0.00333  |g|= 0.0541  |ddm|= 0.374
  HOMO = -0.133572342835844  LUMO = 0.050193210105258
cycle= 19 E= -1581.59145593732  delta_E= 0.000645  |g|= 0.0503  |ddm|= 0.0531
  HOMO = -0.135465608765419  LUMO = 0.05525947334241
cycle= 20 E= -1581.58915832841  delta_E= 0.0023  |g|= 0.0409  |ddm|= 0.207
  HOMO = -0.154773658615828  LUMO = 0.0559998540315138
cycle= 21 E= -1581.58738336959  delta_E= 0.00177  |g|= 0.0779  |ddm|= 0.152
  HOMO = -0.133492114234014  LUMO = 0.0513635717355195
cycle= 22 E= -1581.59032485844  delta_E= -0.00294  |g|= 0.0443  |ddm|= 0.264
  HOMO = -0.132570446427331  LUMO = 0.0518033022070734
cycle= 23 E= -1581.59013179476  delta_E= 0.000193  |g|= 0.0401  |ddm|= 0.0273
  HOMO = -0.13265119658534  LUMO = 0.0516817342467482
cycle= 24 E= -1581.59024505107  delta_E= -0.000113  |g|= 0.0403  |ddm|= 0.0118
  HOMO = -0.131177905650568  LUMO = 0.053310809406316
cycle= 25 E= -1581.5896174836  delta_E= 0.000628  |g|= 0.0301  |ddm|= 0.0892
  HOMO = -0.131640478378896  LUMO = 0.052574669693796
cycle= 26 E= -1581.58983826967  delta_E= -0.000221  |g|= 0.0349  |ddm|= 0.0369
  HOMO = -0.13117553095172  LUMO = 0.0519275412726421
cycle= 27 E= -1581.590002196  delta_E= -0.000164  |g|= 0.037  |ddm|= 0.0213
  HOMO = -0.130736457068285  LUMO = 0.0547109620062894
cycle= 28 E= -1581.58932139724  delta_E= 0.000681  |g|= 0.0212  |ddm|= 0.118
  HOMO = -0.136663161360254  LUMO = 0.0572723545457078
cycle= 29 E= -1581.58889486131  delta_E= 0.000427  |g|= 0.0267  |ddm|= 0.06
  HOMO = -0.139839055333862  LUMO = 0.0571717818194823
cycle= 30 E= -1581.58867506754  delta_E= 0.00022  |g|= 0.0296  |ddm|= 0.0307
  HOMO = -0.135990025044686  LUMO = 0.0566609160320842
cycle= 31 E= -1581.58901680148  delta_E= -0.000342  |g|= 0.0281  |ddm|= 0.0579
  HOMO = -0.130991573654886  LUMO = 0.0531255253214942
cycle= 32 E= -1581.58982817801  delta_E= -0.000811  |g|= 0.0268  |ddm|= 0.111
  HOMO = -0.130893291449389  LUMO = 0.0524927924670493
cycle= 33 E= -1581.59003745435  delta_E= -0.000209  |g|= 0.0303  |ddm|= 0.0291
  HOMO = -0.132055123865855  LUMO = 0.0526148071179605
cycle= 34 E= -1581.59002954711  delta_E= 7.91e-06  |g|= 0.0321  |ddm|= 0.00503
  HOMO = -0.133212012061931  LUMO = 0.053976685941903
cycle= 35 E= -1581.58963012743  delta_E= 0.000399  |g|= 0.0295  |ddm|= 0.0482
  HOMO = -0.137843064649951  LUMO = 0.0504902151920258
cycle= 36 E= -1581.59151903594  delta_E= -0.00189  |g|= 0.0458  |ddm|= 0.191
  HOMO = -0.143394576669082  LUMO = 0.0502660966795746
cycle= 37 E= -1581.5922377458  delta_E= -0.000719  |g|= 0.0523  |ddm|= 0.0627
  HOMO = -0.15906282318205  LUMO = 0.0502973664536553
cycle= 38 E= -1581.59463276362  delta_E= -0.0024  |g|= 0.0554  |ddm|= 0.16
  HOMO = -0.138457058750457  LUMO = 0.0573014784628755
cycle= 39 E= -1581.58900863317  delta_E= 0.00562  |g|= 0.0329  |ddm|= 0.48
  HOMO = -0.137394050104262  LUMO = 0.0566627371275933
cycle= 40 E= -1581.58913450627  delta_E= -0.000126  |g|= 0.033  |ddm|= 0.0203
  HOMO = -0.137469031989863  LUMO = 0.0566983168030542
cycle= 41 E= -1581.58912757128  delta_E= 6.93e-06  |g|= 0.033  |ddm|= 0.000926
  HOMO = -0.136401746401253  LUMO = 0.0565234544511795
cycle= 42 E= -1581.5891525369  delta_E= -2.5e-05  |g|= 0.0308  |ddm|= 0.00404
  HOMO = -0.136492115861025  LUMO = 0.0566696825104523
cycle= 43 E= -1581.58912081227  delta_E= 3.17e-05  |g|= 0.0298  |ddm|= 0.00849
  HOMO = -0.140243796191623  LUMO = 0.0572106083238793
cycle= 44 E= -1581.58866660136  delta_E= 0.000454  |g|= 0.0283  |ddm|= 0.0828
  HOMO = -0.135283001013882  LUMO = 0.0561425357508976
cycle= 45 E= -1581.58923837707  delta_E= -0.000572  |g|= 0.0246  |ddm|= 0.0919
  HOMO = -0.151966853741972  LUMO = 0.0501303412416792
cycle= 46 E= -1581.5933608064  delta_E= -0.00412  |g|= 0.0556  |ddm|= 0.393
  HOMO = -0.155197386640879  LUMO = 0.0503679742431783
cycle= 47 E= -1581.59348429778  delta_E= -0.000123  |g|= 0.0564  |ddm|= 0.0152
  HOMO = -0.140849643051253  LUMO = 0.0519095993838319
cycle= 48 E= -1581.59081358441  delta_E= 0.00267  |g|= 0.0511  |ddm|= 0.183
  HOMO = -0.13900226095271  LUMO = 0.0519780436986799
cycle= 49 E= -1581.59076789261  delta_E= 4.57e-05  |g|= 0.0457  |ddm|= 0.022
  HOMO = -0.138331037392497  LUMO = 0.0523102703449907
cycle= 50 E= -1581.59056976561  delta_E= 0.000198  |g|= 0.0431  |ddm|= 0.0219
SCF not converged.
SCF energy = -1581.59056976561
**** SCF Summaries ****
Total Energy =                       -1581.590569765614646
Nuclear Repulsion Energy =              73.442144153378834
One-electron Energy =                -2347.303010338443983
Two-electron Energy =                  692.270296419450460
**** MO energy ****
                Roothaan           | alpha              | beta
MO #1   energy= -305.518616523572  | -305.482248396897  | -305.480209359273  occ= 2
MO #2   energy= -37.8188930234495  | -37.7896096298706  | -37.7753874285808  occ= 2
MO #3   energy= -32.862872104475   | -32.8348467427848  | -32.8165153942699  occ= 2
MO #4   energy= -32.8362491857208  | -32.8047979761467  | -32.7952762990843  occ= 2
MO #5   energy= -32.835313569558   | -32.8038828510039  | -32.7943649719449  occ= 2
MO #6   energy= -20.5295427664336  | -20.5385241748125  | -20.5066976655168  occ= 2
MO #7   energy= -4.79354728483407  | -4.78764292332074  | -4.74663340769658  occ= 2
MO #8   energy= -3.20974470943151  | -3.22487079295948  | -3.14289364585091  occ= 2
MO #9   energy= -3.18390276370075  | -3.17156329251834  | -3.14678509441225  occ= 2
MO #10  energy= -3.18382186036774  | -3.17132861492453  | -3.14682301406899  occ= 2
MO #11  energy= -1.1986532854845   | -1.26410156935695  | -1.12009835869988  occ= 2
MO #12  energy= -0.643093395070778 | -0.629415659646241 | -0.612603305919862 occ= 2
MO #13  energy= -0.620689393613801 | -0.616778396823144 | -0.576096160542007 occ= 2
MO #14  energy= -0.546753411500446 | -0.536998855283844 | -0.51315448804747  occ= 2
MO #15  energy= -0.546680386741584 | -0.53677351539007  | -0.513014874866635 occ= 2
MO #16  energy= -0.517526975546107 | -0.533709656910999 | -0.486935309159578 occ= 2
MO #17  energy= -0.441827515565127 | -0.451456687422676 | -0.415700589311711 occ= 2
MO #18  energy= -0.178195377841799 | -0.548087059837212 | 0.2035974875284    occ= 1
MO #19  energy= -0.138331037392497 | -0.319919371245605 | 0.112162277499277  occ= 1
MO #20  energy= 0.0523102703449907 | 0.0353675770299543 | 0.0566679867549076 occ= 0
MO #21  energy= 0.0592387541076045 | 0.0501110506893089 | 0.0707582747976868 occ= 0
MO #22  energy= 0.0602367677342762 | 0.0533337702556483 | 0.0696625217524945 occ= 0
MO #23  energy= 0.0940286191848153 | 0.0820342475768224 | 0.100157852045643  occ= 0
MO #24  energy= 0.14897048327838   | 0.143713362462642  | 0.152750046388098  occ= 0
MO #25  energy= 0.176060490584278  | 0.151817562474101  | 0.185955989395709  occ= 0
MO #26  energy= 0.176286334484686  | 0.173173818322297  | 0.181001331522046  occ= 0
MO #27  energy= 0.179609218696696  | 0.179486988565691  | 0.181288343256958  occ= 0
MO #28  energy= 0.235011912227725  | 0.215017559108516  | 0.261594124437291  occ= 0
MO #29  energy= 0.235636462529411  | 0.219783440352651  | 0.2580712954412    occ= 0
MO #30  energy= 0.258802852418261  | 0.25030047194718   | 0.267130822665109  occ= 0
MO #31  energy= 0.314001776381802  | 0.307769732557485  | 0.323944040810764  occ= 0
MO #32  energy= 0.314032997728319  | 0.307816509666419  | 0.323953367690235  occ= 0
MO #33  energy= 0.375608433313357  | 0.356335840930082  | 0.396597169556815  occ= 0
MO #34  energy= 0.386548455269126  | 0.37925133581693   | 0.397602263162053  occ= 0
MO #35  energy= 0.388954966748225  | 0.384747709785728  | 0.396818150952651  occ= 0
MO #36  energy= 0.479586631679774  | 0.471940936990829  | 0.490950433998083  occ= 0
MO #37  energy= 0.507681928865389  | 0.503621214415512  | 0.518069226642431  occ= 0
MO #38  energy= 0.556285589264047  | 0.550632494881555  | 0.565649616263719  occ= 0
MO #39  energy= 0.556661619093074  | 0.551436694836969  | 0.565599685678657  occ= 0
MO #40  energy= 0.601607146208732  | 0.596453201230142  | 0.611123562129102  occ= 0
MO #41  energy= 0.640696048375118  | 0.632245730298406  | 0.65369944209548   occ= 0
MO #42  energy= 0.645698239676118  | 0.645855571333913  | 0.650173586816673  occ= 0
MO #43  energy= 0.688436971703959  | 0.686726224164276  | 0.693873931973142  occ= 0
MO #44  energy= 0.834897954519854  | 0.816662794294096  | 0.863247071158405  occ= 0
MO #45  energy= 0.836167619500614  | 0.82984163463077   | 0.852443231442657  occ= 0
MO #46  energy= 0.9100095868573    | 0.890328849788526  | 0.937047676190883  occ= 0
MO #47  energy= 0.917083799218405  | 0.912512702047449  | 0.929071799164146  occ= 0
MO #48  energy= 1.0288053136913    | 1.0229861250179    | 1.04962762743265   occ= 0
MO #49  energy= 1.16719419912911   | 1.16348370631724   | 1.17871278729811   occ= 0
MO #50  energy= 1.23372901147686   | 1.23088245970914   | 1.24375212930883   occ= 0
MO #51  energy= 1.25425532533585   | 1.24993301466099   | 1.27471140025661   occ= 0
MO #52  energy= 1.25435719962339   | 1.24994551932418   | 1.27490238943991   occ= 0
MO #53  energy= 1.32721141884915   | 1.32338306523524   | 1.34929979974636   occ= 0
MO #54  energy= 1.32972899455445   | 1.33191381252635   | 1.34550597334522   occ= 0
MO #55  energy= 1.38678466619213   | 1.37971109271672   | 1.39980186879245   occ= 0
MO #56  energy= 1.63109534249162   | 1.62002185345199   | 1.65733909617771   occ= 0
MO #57  energy= 2.01547702473725   | 1.98299489373738   | 2.05717821436853   occ= 0
MO #58  energy= 2.01564511550089   | 1.98443756779264   | 2.05607555533212   occ= 0
MO #59  energy= 2.08028960494162   | 2.05360054826886   | 2.11892362944518   occ= 0
MO #60  energy= 2.09230903130344   | 2.09108729595256   | 2.10546608568275   occ= 0
MO #61  energy= 2.38031503135991   | 2.3717738013494    | 2.40336075398044   occ= 0
MO #62  energy= 2.55792626554019   | 2.51500103136966   | 2.6107057919085    occ= 0
MO #63  energy= 2.56966106746039   | 2.56748604786477   | 2.58161615240955   occ= 0
MO #64  energy= 2.7505190246897    | 2.74850098890991   | 2.76852197104987   occ= 0
MO #65  energy= 3.01717768927171   | 3.02097978025271   | 3.03934733424071   occ= 0
MO #66  energy= 3.18342611881902   | 3.19039041509504   | 3.20491381377677   occ= 0
MO #67  energy= 3.18493882416211   | 3.19249082784572   | 3.20575198327942   occ= 0
MO #68  energy= 3.18606331457608   | 3.17906664734687   | 3.20039897547306   occ= 0
MO #69  energy= 3.38055041194123   | 3.39111656125222   | 3.40060759711937   occ= 0
MO #70  energy= 3.38057539728351   | 3.39110365627228   | 3.40066955393771   occ= 0
MO #71  energy= 3.39419388309797   | 3.39780973960276   | 3.41843684914818   occ= 0
MO #72  energy= 3.394193911069     | 3.3978097626476    | 3.41843683469546   occ= 0
MO #73  energy= 3.50844624673435   | 3.51050373549742   | 3.53518079092875   occ= 0
MO #74  energy= 3.60074819112776   | 3.59576227048987   | 3.63340224429936   occ= 0
MO #75  energy= 3.60714290051448   | 3.60760806771121   | 3.6342648945793    occ= 0
MO #76  energy= 4.23930012411136   | 4.24873145660178   | 4.26234555905508   occ= 0
MO #77  energy= 4.23935727152846   | 4.24874611734806   | 4.26244614664952   occ= 0
MO #78  energy= 4.25357159904298   | 4.26679248166862   | 4.2762034129916    occ= 0
MO #79  energy= 4.25375511749893   | 4.2660451703908    | 4.27742086058369   occ= 0
MO #80  energy= 4.27137773342171   | 4.26983861867364   | 4.30355029397458   occ= 0
MO #81  energy= 4.41358131100295   | 4.40743553290551   | 4.44488819451847   occ= 0
MO #82  energy= 5.59276694698244   | 5.57021823960059   | 5.62592847511896   occ= 0
MO #83  energy= 5.5928840070862    | 5.57032142925256   | 5.62605718134126   occ= 0
MO #84  energy= 5.61306398280014   | 5.5993355732916    | 5.63863998304481   occ= 0
MO #85  energy= 5.61327445464908   | 5.60005865071506   | 5.63833172375059   occ= 0
MO #86  energy= 5.8216537553477    | 5.80610236503923   | 5.85192030626762   occ= 0
MO #87  energy= 5.85150585290057   | 5.85353977698283   | 5.86407735015896   occ= 0
MO #88  energy= 6.30753183858487   | 6.27303196979493   | 6.35273295395425   occ= 0
MO #89  energy= 6.32176130759935   | 6.31716099715585   | 6.34808361175196   occ= 0
MO #90  energy= 6.34327139865787   | 6.34166985481767   | 6.35545663618792   occ= 0
MO #91  energy= 6.63403829598897   | 6.63030576781987   | 6.64987383442522   occ= 0
MO #92  energy= 6.9154905849243    | 6.88037633633441   | 6.96219869855505   occ= 0
MO #93  energy= 6.91560587174117   | 6.88028343146275   | 6.96252317744178   occ= 0
MO #94  energy= 7.08394155883501   | 7.05130833405856   | 7.12937316066815   occ= 0
MO #95  energy= 7.11132991857687   | 7.11087688552985   | 7.1245090720135    occ= 0
MO #96  energy= 7.13844767158578   | 7.13231465421316   | 7.15485375298207   occ= 0
MO #97  energy= 7.92083337315415   | 7.91337903102836   | 7.94392223054355   occ= 0
MO #98  energy= 10.3722528736445   | 10.3885962425252   | 10.3995910163809   occ= 0
MO #99  energy= 11.1703204928075   | 11.1889694132776   | 11.1962614277369   occ= 0
MO #100 energy= 11.1703333946372   | 11.188943550021    | 11.1963135137995   occ= 0
MO #101 energy= 11.1963266859521   | 11.2170767333594   | 11.2242351515778   occ= 0
MO #102 energy= 11.1967235550378   | 11.2159823526914   | 11.2261882224437   occ= 0
MO #103 energy= 11.4007231418615   | 11.4099391628322   | 11.4412119454      occ= 0
MO #104 energy= 11.4735974241335   | 11.490478441604    | 11.4970489001128   occ= 0
MO #105 energy= 11.4746141738515   | 11.4913489986052   | 11.4982672825552   occ= 0
MO #106 energy= 11.6132523723329   | 11.6241708390493   | 11.6502340567077   occ= 0
MO #107 energy= 12.1158133844323   | 12.1322032562962   | 12.1456136696918   occ= 0
MO #108 energy= 12.1158284865265   | 12.1322338832668   | 12.1456130196944   occ= 0
MO #109 energy= 12.1267086909264   | 12.1392510587302   | 12.1622576363435   occ= 0
MO #110 energy= 12.1269707541222   | 12.1391589472008   | 12.1629110519204   occ= 0
MO #111 energy= 12.138840665684    | 12.158692878526    | 12.1629660988613   occ= 0
MO #112 energy= 12.1388414595866   | 12.1586960458254   | 12.1629649167966   occ= 0
MO #113 energy= 12.1570216771088   | 12.173621895152    | 12.1823068960553   occ= 0
MO #114 energy= 12.1570216816447   | 12.1736219091809   | 12.1823068914892   occ= 0
MO #115 energy= 12.1835178370298   | 12.1940073343239   | 12.2220253332863   occ= 0
MO #116 energy= 12.55290143341     | 12.5757805739295   | 12.5847484456003   occ= 0
MO #117 energy= 12.5529220266942   | 12.5757616897404   | 12.584808750571    occ= 0
MO #118 energy= 12.5814041166634   | 12.6033960490338   | 12.610893426224    occ= 0
MO #119 energy= 12.5814041569662   | 12.6033958101284   | 12.6108937843896   occ= 0
MO #120 energy= 12.7035192913831   | 12.7113836963667   | 12.7500410993081   occ= 0
MO #121 energy= 12.7044654207729   | 12.7105224568788   | 12.752787842493    occ= 0
MO #122 energy= 13.246672687756    | 13.2479217535577   | 13.2970654565263   occ= 0
MO #123 energy= 17.474004910784    | 17.4690149267798   | 17.491772133756    occ= 0
MO #124 energy= 27.0609975817535   | 27.0860067490995   | 27.0906093962659   occ= 0
MO #125 energy= 27.0632678940179   | 27.088075805398    | 27.0930498797489   occ= 0
MO #126 energy= 27.1245894063866   | 27.1476322715143   | 27.1624929521386   occ= 0
MO #127 energy= 66.9150844325574   | 66.9462983404301   | 66.9537699813205   occ= 0
MO #128 energy= 73.8876147259643   | 73.8897438165187   | 73.8991743157941   occ= 0
MO #129 energy= 143.064024093734   | 143.077354651241   | 143.081849202502   occ= 0
 ** MO coefficients (expansion on meta-Lowdin AOs) **
               #1        #2        #3        #4        #5       
0 Ni 1s          0.99993  -0.00665   0.00000   0.00000   0.00000
0 Ni 2s          0.00681   0.99980   0.00030  -0.00000  -0.00000
0 Ni 3s         -0.00239   0.00951  -0.00007   0.00000   0.00000
0 Ni 4s          0.00025  -0.00057   0.00002  -0.00000   0.00000
0 Ni 5s          0.00304  -0.00356   0.00000  -0.00000   0.00000
0 Ni 6s          0.00183  -0.00333   0.00019   0.00000  -0.00000
0 Ni 2px         0.00000   0.00005  -0.18276   0.07694   0.98012
0 Ni 2py        -0.00000  -0.00014   0.45545   0.89011   0.01505
0 Ni 2pz        -0.00000  -0.00026   0.87128  -0.44915   0.19773
0 Ni 3px        -0.00000   0.00001  -0.00054   0.00026   0.00335
0 Ni 3py         0.00000  -0.00003   0.00135   0.00302   0.00005
0 Ni 3pz         0.00000  -0.00005   0.00258  -0.00152   0.00068
0 Ni 4px         0.00001  -0.00000  -0.00031   0.00012   0.00160
0 Ni 4py        -0.00001   0.00000   0.00076   0.00146   0.00002
0 Ni 4pz        -0.00000  -0.00004   0.00143  -0.00075   0.00033
0 Ni 5px        -0.00001   0.00005  -0.00046   0.00020   0.00258
0 Ni 5py         0.00002  -0.00011   0.00114   0.00235   0.00004
0 Ni 5pz         0.00003  -0.00020   0.00219  -0.00119   0.00052
0 Ni 6px        -0.00005   0.00009   0.00029  -0.00011  -0.00137
0 Ni 6py         0.00014  -0.00022  -0.00073  -0.00124  -0.00002
0 Ni 6pz         0.00026  -0.00041  -0.00140   0.00062  -0.00027
0 Ni 7px        -0.00001   0.00001  -0.00043   0.00017   0.00214
0 Ni 7py         0.00002  -0.00002   0.00108   0.00194   0.00003
0 Ni 7pz         0.00004  -0.00005   0.00207  -0.00097   0.00043
0 Ni 3dxx        0.00037  -0.00231   0.00002   0.00000   0.00001
0 Ni 3dxy        0.00000  -0.00004  -0.00001   0.00001  -0.00001
0 Ni 3dxz        0.00001  -0.00009  -0.00001  -0.00001  -0.00003
0 Ni 3dyy        0.00037  -0.00224   0.00003  -0.00002   0.00000
0 Ni 3dyz       -0.00001   0.00021   0.00004  -0.00002  -0.00000
0 Ni 3dzz        0.00035  -0.00204   0.00007   0.00002  -0.00001
0 Ni 4dxx        0.00044  -0.00318   0.00007   0.00000   0.00000
0 Ni 4dxy        0.00000   0.00003  -0.00000   0.00000  -0.00001
0 Ni 4dxz        0.00001   0.00005  -0.00001  -0.00000  -0.00002
0 Ni 4dyy        0.00043  -0.00323   0.00007  -0.00001  -0.00000
0 Ni 4dyz       -0.00004  -0.00011   0.00003  -0.00001   0.00000
0 Ni 4dzz        0.00039  -0.00331   0.00010   0.00000  -0.00000
0 Ni 5dxx        0.00511  -0.00695  -0.00006  -0.00000  -0.00001
0 Ni 5dxy        0.00000  -0.00002   0.00001   0.00001  -0.00002
0 Ni 5dxz        0.00000  -0.00006   0.00002  -0.00001  -0.00004
0 Ni 5dyy        0.00511  -0.00698  -0.00003   0.00003   0.00000
0 Ni 5dyz       -0.00002   0.00014  -0.00006  -0.00003  -0.00000
0 Ni 5dzz        0.00512  -0.00712   0.00003  -0.00003   0.00001
0 Ni 6dxx        0.00050  -0.00277  -0.00003  -0.00000  -0.00001
0 Ni 6dxy       -0.00002   0.00006   0.00002  -0.00000   0.00001
0 Ni 6dxz       -0.00004   0.00012   0.00005   0.00000   0.00002
0 Ni 6dyy        0.00053  -0.00288  -0.00006   0.00002  -0.00000
0 Ni 6dyz        0.00009  -0.00029  -0.00012   0.00002   0.00000
0 Ni 6dzz        0.00062  -0.00318  -0.00018  -0.00002   0.00000
0 Ni 4fxxx       0.00003  -0.00002   0.00035  -0.00018  -0.00229
0 Ni 4fxxy      -0.00004   0.00003  -0.00045  -0.00110  -0.00009
0 Ni 4fxxz      -0.00007   0.00005  -0.00083   0.00056  -0.00039
0 Ni 4fxyy       0.00001  -0.00001   0.00022  -0.00016  -0.00112
0 Ni 4fxyz      -0.00000  -0.00000   0.00015  -0.00005   0.00024
0 Ni 4fxzz       0.00001  -0.00002   0.00036   0.00001  -0.00090
0 Ni 4fyyy      -0.00007   0.00005  -0.00090  -0.00198  -0.00003
0 Ni 4fyyz      -0.00007   0.00006  -0.00102   0.00090  -0.00023
0 Ni 4fyzz      -0.00002   0.00004  -0.00093  -0.00096   0.00006
0 Ni 4fzzz      -0.00013   0.00013  -0.00208   0.00081  -0.00037
0 Ni 5fxxx      -0.00003   0.00002   0.00013  -0.00008  -0.00104
0 Ni 5fxxy       0.00004  -0.00003  -0.00008  -0.00031  -0.00008
0 Ni 5fxxz       0.00009  -0.00007  -0.00014   0.00015  -0.00021
0 Ni 5fxyy      -0.00001   0.00002   0.00005  -0.00009  -0.00025
0 Ni 5fxyz      -0.00000  -0.00001  -0.00008   0.00005  -0.00023
0 Ni 5fxzz       0.00001  -0.00003  -0.00013  -0.00007   0.00005
0 Ni 5fyyy       0.00007  -0.00006  -0.00034  -0.00083  -0.00002
0 Ni 5fyyz       0.00008  -0.00009  -0.00024   0.00046  -0.00005
0 Ni 5fyzz      -0.00002   0.00009   0.00036   0.00017  -0.00007
0 Ni 5fzzz       0.00013  -0.00019  -0.00089   0.00024  -0.00011
0 Ni 5gxxxx     -0.00035  -0.00140   0.00002  -0.00000  -0.00000
0 Ni 5gxxxy      0.00001   0.00000   0.00000  -0.00000   0.00000
0 Ni 5gxxxz      0.00003   0.00000   0.00001   0.00000   0.00001
0 Ni 5gxxyy     -0.00002  -0.00133   0.00001   0.00001  -0.00000
0 Ni 5gxxyz     -0.00003  -0.00001  -0.00001   0.00001   0.00000
0 Ni 5gxxzz     -0.00004  -0.00134  -0.00000  -0.00001   0.00000
0 Ni 5gxyyy      0.00001   0.00001   0.00000  -0.00000   0.00000
0 Ni 5gxyyz      0.00001   0.00004   0.00000   0.00000   0.00000
0 Ni 5gxyzz      0.00000   0.00008  -0.00000  -0.00000  -0.00000
0 Ni 5gxzzz      0.00002   0.00008  -0.00000   0.00000   0.00000
0 Ni 5gyyyy     -0.00038  -0.00143   0.00001   0.00001  -0.00000
0 Ni 5gyyyz     -0.00006  -0.00004  -0.00002   0.00001   0.00000
0 Ni 5gyyzz     -0.00005  -0.00146   0.00000  -0.00000   0.00000
0 Ni 5gyzzz     -0.00005  -0.00020  -0.00000   0.00001  -0.00000
0 Ni 5gzzzz     -0.00047  -0.00160  -0.00001  -0.00001   0.00000
1  O 1s          0.00006  -0.00003   0.00001  -0.00000   0.00000
1  O 2s         -0.00011   0.00014   0.00018  -0.00000   0.00000
1  O 3s          0.00008  -0.00004  -0.00000  -0.00001   0.00000
1  O 4s          0.00001   0.00011   0.00002  -0.00000   0.00000
1  O 5s          0.00014  -0.00033  -0.00010   0.00000  -0.00000
1  O 6s         -0.00019   0.00031  -0.00005   0.00000  -0.00000
1  O 2px         0.00005  -0.00009  -0.00004  -0.00001  -0.00006
1  O 2py        -0.00013   0.00022   0.00011  -0.00008   0.00000
1  O 2pz        -0.00025   0.00041   0.00021   0.00004  -0.00001
1  O 3px         0.00009  -0.00012  -0.00001   0.00000  -0.00000
1  O 3py        -0.00022   0.00028   0.00001  -0.00001   0.00000
1  O 3pz        -0.00038   0.00050   0.00001   0.00000  -0.00000
1  O 4px        -0.00003   0.00004   0.00006  -0.00001  -0.00006
1  O 4py         0.00006  -0.00010  -0.00015  -0.00006  -0.00000
1  O 4pz         0.00010  -0.00020  -0.00029   0.00004  -0.00002
1  O 5px        -0.00004   0.00006   0.00005  -0.00001  -0.00007
1  O 5py         0.00011  -0.00015  -0.00012  -0.00006  -0.00000
1  O 5pz         0.00023  -0.00029  -0.00022   0.00003  -0.00001
1  O 3dxx       -0.00002  -0.00012  -0.00016   0.00000   0.00000
1  O 3dxy        0.00001   0.00004   0.00005  -0.00001   0.00001
1  O 3dxz        0.00001   0.00008   0.00008   0.00000   0.00002
1  O 3dyy       -0.00002  -0.00004  -0.00009  -0.00002   0.00000
1  O 3dyz       -0.00004  -0.00019  -0.00021   0.00003  -0.00000
1  O 3dzz       -0.00000   0.00019   0.00009   0.00002  -0.00000
1  O 4dxx       -0.00019   0.00021   0.00011   0.00000  -0.00001
1  O 4dxy       -0.00007   0.00008   0.00005  -0.00001   0.00002
1  O 4dxz       -0.00013   0.00016   0.00009   0.00001   0.00004
1  O 4dyy       -0.00008   0.00008   0.00003   0.00002  -0.00000
1  O 4dyz        0.00032  -0.00039  -0.00022   0.00003   0.00000
1  O 4dzz        0.00024  -0.00033  -0.00019  -0.00002   0.00001
1  O 5dxx       -0.00014   0.00016   0.00008   0.00000   0.00000
1  O 5dxy       -0.00008   0.00007  -0.00001   0.00000   0.00000
1  O 5dxz       -0.00015   0.00013  -0.00001   0.00000   0.00000
1  O 5dyy       -0.00002   0.00005   0.00008  -0.00001  -0.00000
1  O 5dyz        0.00038  -0.00033   0.00003  -0.00000   0.00000
1  O 5dzz        0.00035  -0.00029   0.00007   0.00001  -0.00000
1  O 4fxxx       0.00006  -0.00004  -0.00002   0.00000   0.00001
1  O 4fxxy      -0.00009   0.00006   0.00003   0.00001   0.00000
1  O 4fxxz      -0.00019   0.00012   0.00005  -0.00000   0.00000
1  O 4fxyy      -0.00001  -0.00000  -0.00003   0.00000   0.00001
1  O 4fxyz      -0.00014   0.00007  -0.00005   0.00000  -0.00001
1  O 4fxzz      -0.00015   0.00006  -0.00007  -0.00000   0.00000
1  O 4fyyy      -0.00010   0.00009   0.00008   0.00001   0.00000
1  O 4fyyz       0.00002   0.00003   0.00011  -0.00001   0.00000
1  O 4fyzz       0.00036  -0.00015   0.00017  -0.00000   0.00000
1  O 4fzzz       0.00014   0.00002   0.00025  -0.00000   0.00000
               #6        #7        #8        #9        #10      
0 Ni 1s         -0.00006   0.00235   0.00001  -0.00000  -0.00000
0 Ni 2s          0.00002  -0.00925  -0.00000   0.00000   0.00000
0 Ni 3s          0.00024   0.99971   0.00580  -0.00000  -0.00000
0 Ni 4s         -0.00029   0.00085  -0.00064  -0.00000   0.00000
0 Ni 5s          0.00005   0.00086  -0.00070   0.00000  -0.00000
0 Ni 6s          0.00004   0.00361  -0.00024   0.00000  -0.00001
0 Ni 2px         0.00000  -0.00002   0.00054  -0.00222  -0.00248
0 Ni 2py        -0.00001   0.00004  -0.00134  -0.00241   0.00178
0 Ni 2pz        -0.00001   0.00007  -0.00256   0.00079  -0.00145
0 Ni 3px        -0.00016   0.00106  -0.18271   0.65656   0.73166
0 Ni 3py         0.00039  -0.00263   0.45532   0.71607  -0.52882
0 Ni 3pz         0.00074  -0.00503   0.87103  -0.23659   0.42991
0 Ni 4px        -0.00005  -0.00001   0.00008  -0.00254  -0.00286
0 Ni 4py         0.00012   0.00002  -0.00017  -0.00264   0.00194
0 Ni 4pz         0.00024  -0.00002  -0.00014   0.00090  -0.00172
0 Ni 5px         0.00003  -0.00019   0.00092  -0.00426  -0.00477
0 Ni 5py        -0.00007   0.00047  -0.00228  -0.00449   0.00329
0 Ni 5pz        -0.00013   0.00088  -0.00425   0.00153  -0.00290
0 Ni 6px         0.00002   0.00011  -0.00063   0.00119   0.00132
0 Ni 6py        -0.00004  -0.00027   0.00157   0.00140  -0.00103
0 Ni 6pz        -0.00008  -0.00054   0.00299  -0.00052   0.00091
0 Ni 7px         0.00000   0.00002   0.00021  -0.00074  -0.00081
0 Ni 7py        -0.00000  -0.00004  -0.00052  -0.00090   0.00067
0 Ni 7pz        -0.00000  -0.00007  -0.00093   0.00035  -0.00059
0 Ni 3dxx       -0.00007   0.00374   0.00090   0.00039   0.00044
0 Ni 3dxy       -0.00001  -0.00131   0.00078  -0.00049  -0.00089
0 Ni 3dxz       -0.00001  -0.00259   0.00148  -0.00134  -0.00134
0 Ni 3dyy       -0.00006   0.00603  -0.00016  -0.00066   0.00044
0 Ni 3dyz        0.00003   0.00618  -0.00380  -0.00079   0.00027
0 Ni 3dzz       -0.00004   0.01209  -0.00405   0.00028  -0.00088
0 Ni 4dxx        0.00003   0.00318  -0.00119   0.00032   0.00036
0 Ni 4dxy        0.00001   0.00048  -0.00055  -0.00021  -0.00089
0 Ni 4dxz        0.00002   0.00097  -0.00099  -0.00122  -0.00097
0 Ni 4dyy        0.00003   0.00219  -0.00083  -0.00127   0.00098
0 Ni 4dyz       -0.00006  -0.00222   0.00278  -0.00135   0.00081
0 Ni 4dzz       -0.00002  -0.00001   0.00182   0.00095  -0.00135
0 Ni 5dxx       -0.00001   0.00494   0.00027   0.00009   0.00011
0 Ni 5dxy        0.00001  -0.00001  -0.00011   0.00007   0.00025
0 Ni 5dxz        0.00001  -0.00005  -0.00020   0.00034   0.00028
0 Ni 5dyy       -0.00002   0.00485   0.00005  -0.00032   0.00025
0 Ni 5dyz       -0.00003   0.00009   0.00046   0.00034  -0.00019
0 Ni 5dzz        0.00001   0.00476  -0.00038   0.00024  -0.00036
0 Ni 6dxx       -0.00002   0.00458   0.00011   0.00001   0.00002
0 Ni 6dxy        0.00000  -0.00014   0.00011  -0.00003  -0.00002
0 Ni 6dxz        0.00000  -0.00026   0.00020  -0.00003  -0.00007
0 Ni 6dyy       -0.00001   0.00486   0.00004   0.00005  -0.00004
0 Ni 6dyz       -0.00001   0.00058  -0.00057   0.00003  -0.00003
0 Ni 6dzz       -0.00002   0.00546  -0.00050  -0.00007   0.00006
0 Ni 4fxxx       0.00002   0.00005  -0.00067   0.00043   0.00051
0 Ni 4fxxy      -0.00002  -0.00007   0.00087  -0.00098  -0.00120
0 Ni 4fxxz      -0.00005  -0.00013   0.00187  -0.00187  -0.00244
0 Ni 4fxyy       0.00001   0.00004  -0.00011   0.00016   0.00242
0 Ni 4fxyz      -0.00000  -0.00002   0.00100   0.00224   0.00468
0 Ni 4fxzz       0.00001   0.00002   0.00082   0.00566   0.00407
0 Ni 4fyyy      -0.00004  -0.00016   0.00156   0.00211  -0.00156
0 Ni 4fyyz      -0.00004  -0.00014   0.00064   0.00553  -0.00378
0 Ni 4fyzz      -0.00001   0.00000  -0.00242   0.00334  -0.00052
0 Ni 4fzzz      -0.00007  -0.00021   0.00036  -0.00273   0.00487
0 Ni 5fxxx      -0.00003  -0.00011  -0.00022  -0.00190  -0.00214
0 Ni 5fxxy       0.00005   0.00015   0.00024  -0.00161   0.00100
0 Ni 5fxxz       0.00010   0.00028   0.00057   0.00034  -0.00125
0 Ni 5fxyy      -0.00002  -0.00003  -0.00012  -0.00144  -0.00139
0 Ni 5fxyz       0.00000  -0.00015  -0.00004  -0.00018  -0.00042
0 Ni 5fxzz       0.00002  -0.00011   0.00010   0.00092   0.00129
0 Ni 5fyyy       0.00007   0.00027   0.00066  -0.00169   0.00124
0 Ni 5fyyz       0.00010   0.00011   0.00062   0.00103  -0.00134
0 Ni 5fyzz      -0.00005   0.00034  -0.00012   0.00115  -0.00102
0 Ni 5fzzz       0.00014   0.00011   0.00131   0.00039  -0.00085
0 Ni 5gxxxx      0.00002   0.00179  -0.00002   0.00002   0.00002
0 Ni 5gxxxy      0.00000  -0.00011   0.00002  -0.00001  -0.00005
0 Ni 5gxxxz      0.00000  -0.00022   0.00004  -0.00007  -0.00006
0 Ni 5gxxyy      0.00001   0.00165  -0.00004  -0.00003   0.00006
0 Ni 5gxxyz     -0.00000   0.00027  -0.00005  -0.00005   0.00004
0 Ni 5gxxzz      0.00001   0.00192  -0.00009   0.00007  -0.00002
0 Ni 5gxyyy      0.00000  -0.00006   0.00002  -0.00001  -0.00008
0 Ni 5gxyyz     -0.00000   0.00006  -0.00000  -0.00006  -0.00007
0 Ni 5gxyzz     -0.00000   0.00032  -0.00006  -0.00001  -0.00006
0 Ni 5gxzzz     -0.00000   0.00017  -0.00002  -0.00011  -0.00007
0 Ni 5gyyyy      0.00001   0.00197  -0.00011  -0.00013   0.00010
0 Ni 5gyyyz     -0.00001   0.00038  -0.00009  -0.00012   0.00007
0 Ni 5gyyzz      0.00001   0.00145  -0.00002  -0.00003  -0.00001
0 Ni 5gyzzz      0.00000  -0.00044   0.00012  -0.00011   0.00006
0 Ni 5gzzzz      0.00001   0.00194  -0.00008   0.00011  -0.00015
1  O 1s          1.00000  -0.00024  -0.00087  -0.00000  -0.00000
1  O 2s         -0.00058  -0.00117  -0.01537  -0.00000   0.00001
1  O 3s          0.00049   0.00058   0.00015   0.00000  -0.00001
1  O 4s          0.00087   0.00046   0.00021   0.00000  -0.00001
1  O 5s          0.00025  -0.00061  -0.00028   0.00000   0.00000
1  O 6s          0.00066   0.00014   0.00001  -0.00000   0.00001
1  O 2px         0.00010   0.00063   0.00265   0.00187   0.00211
1  O 2py        -0.00025  -0.00156  -0.00662   0.00157  -0.00110
1  O 2pz        -0.00048  -0.00293  -0.01269  -0.00043   0.00102
1  O 3px         0.00000  -0.00012  -0.00033   0.00011   0.00013
1  O 3py        -0.00001   0.00029   0.00085  -0.00002   0.00002
1  O 3pz        -0.00002   0.00053   0.00172   0.00004  -0.00002
1  O 4px         0.00007   0.00020   0.00010  -0.00002  -0.00003
1  O 4py        -0.00016  -0.00049  -0.00024   0.00001  -0.00000
1  O 4pz        -0.00031  -0.00091  -0.00042  -0.00002   0.00002
1  O 5px        -0.00003   0.00004  -0.00000   0.00003   0.00003
1  O 5py         0.00008  -0.00009   0.00001   0.00008  -0.00007
1  O 5pz         0.00016  -0.00016  -0.00004  -0.00004   0.00004
1  O 3dxx        0.00058   0.00027   0.00146  -0.00029  -0.00029
1  O 3dxy       -0.00004  -0.00006  -0.00048  -0.00033  -0.00073
1  O 3dxz       -0.00010  -0.00012  -0.00090  -0.00104  -0.00101
1  O 3dyy        0.00025   0.00019   0.00077   0.00064  -0.00045
1  O 3dyz        0.00004   0.00033   0.00227  -0.00077   0.00039
1  O 3dzz        0.00022  -0.00022  -0.00139  -0.00035   0.00074
1  O 4dxx       -0.00011  -0.00032  -0.00062   0.00015   0.00016
1  O 4dxy       -0.00000   0.00003  -0.00009  -0.00018  -0.00040
1  O 4dxz        0.00000   0.00006  -0.00015  -0.00056  -0.00055
1  O 4dyy       -0.00017  -0.00040  -0.00053  -0.00031   0.00023
1  O 4dyz        0.00003  -0.00011   0.00041  -0.00040   0.00020
1  O 4dzz       -0.00013  -0.00045  -0.00018   0.00016  -0.00035
1  O 5dxx        0.00005   0.00024  -0.00020   0.00006   0.00006
1  O 5dxy       -0.00001  -0.00005  -0.00008  -0.00008  -0.00015
1  O 5dxz       -0.00001  -0.00010  -0.00014  -0.00022  -0.00021
1  O 5dyy        0.00004   0.00029  -0.00008  -0.00011   0.00008
1  O 5dyz        0.00004   0.00027   0.00036  -0.00015   0.00005
1  O 5dzz        0.00008   0.00055   0.00027   0.00006  -0.00015
1  O 4fxxx      -0.00005  -0.00006   0.00003  -0.00000  -0.00001
1  O 4fxxy       0.00007   0.00010  -0.00000  -0.00008  -0.00005
1  O 4fxxz       0.00014   0.00019   0.00003  -0.00010  -0.00014
1  O 4fxyy      -0.00002  -0.00005   0.00003  -0.00001   0.00010
1  O 4fxyz       0.00001  -0.00003   0.00015   0.00015   0.00030
1  O 4fxzz      -0.00001  -0.00007   0.00017   0.00028   0.00022
1  O 4fyyy       0.00012   0.00017  -0.00008   0.00007  -0.00005
1  O 4fyyz       0.00012   0.00023  -0.00014   0.00027  -0.00020
1  O 4fyzz       0.00003   0.00014  -0.00050   0.00015  -0.00002
1  O 4fzzz       0.00021   0.00032  -0.00052  -0.00010   0.00020
               #11       #12       #13       #14       #15      
0 Ni 1s         -0.00023  -0.00000  -0.00000   0.00002  -0.00000
0 Ni 2s          0.00058   0.00000   0.00000  -0.00002   0.00000
0 Ni 3s         -0.00417   0.00000   0.00000   0.00098  -0.00025
0 Ni 4s          0.18430   0.00064  -0.00035   0.00357  -0.00081
0 Ni 5s         -0.00014  -0.00009   0.00005   0.00055  -0.00011
0 Ni 6s         -0.00008  -0.00002   0.00001  -0.00029   0.00005
0 Ni 2px        -0.00005   0.00000   0.00001   0.00000  -0.00000
0 Ni 2py         0.00012   0.00004   0.00000  -0.00001   0.00000
0 Ni 2pz         0.00023  -0.00002   0.00000  -0.00001   0.00000
0 Ni 3px         0.00273   0.00002   0.00198  -0.00010   0.00002
0 Ni 3py        -0.00679   0.00053   0.00013   0.00026  -0.00006
0 Ni 3pz        -0.01299  -0.00027   0.00035   0.00050  -0.00011
0 Ni 4px         0.00194   0.00014   0.00929   0.00014  -0.00002
0 Ni 4py        -0.00480   0.00512   0.00053  -0.00014   0.00000
0 Ni 4pz        -0.00963  -0.00226   0.00148  -0.00034   0.00008
0 Ni 5px         0.00129   0.00006  -0.00003  -0.00034   0.00006
0 Ni 5py        -0.00333   0.00154   0.00003   0.00031  -0.00003
0 Ni 5pz        -0.00672  -0.00107   0.00015   0.00096  -0.00030
0 Ni 6px         0.00037  -0.00003  -0.00044  -0.00008   0.00002
0 Ni 6py        -0.00087  -0.00086  -0.00003   0.00015  -0.00002
0 Ni 6pz        -0.00155   0.00043  -0.00007   0.00030  -0.00007
0 Ni 7px        -0.00069  -0.00004  -0.00015   0.00014  -0.00003
0 Ni 7py         0.00177  -0.00102  -0.00003  -0.00021   0.00005
0 Ni 7pz         0.00341   0.00063  -0.00007  -0.00049   0.00015
0 Ni 3dxx       -0.00837  -0.00650  -0.25187   0.68998  -0.10980
0 Ni 3dxy       -0.02390  -0.14158   0.43289   0.22482   0.84577
0 Ni 3dxz       -0.04593   0.10122   0.81765   0.10018  -0.47794
0 Ni 3dyy        0.02722   0.53900   0.03882  -0.51814   0.18797
0 Ni 3dyz        0.11301   0.53330   0.13123   0.39811   0.04646
0 Ni 3dzz        0.13295  -0.53182   0.21268  -0.17569  -0.07716
0 Ni 4dxx       -0.00122   0.00026   0.00622  -0.00817   0.00132
0 Ni 4dxy       -0.00050   0.00372  -0.01090  -0.00265  -0.01074
0 Ni 4dxz       -0.00094  -0.00266  -0.02060  -0.00096   0.00598
0 Ni 4dyy        0.00014  -0.01410  -0.00102   0.00671  -0.00236
0 Ni 4dyz        0.00163  -0.01414  -0.00325  -0.00621  -0.00038
0 Ni 4dzz        0.00144   0.01379  -0.00517   0.00147   0.00103
0 Ni 5dxx       -0.00268  -0.00014  -0.00452   0.00907  -0.00149
0 Ni 5dxy        0.00109   0.00261  -0.00800  -0.00296  -0.01066
0 Ni 5dxz        0.00208  -0.00187  -0.01523  -0.00153   0.00618
0 Ni 5dyy       -0.00174   0.00971   0.00070  -0.00646   0.00234
0 Ni 5dyz       -0.00581  -0.00992  -0.00244  -0.00461  -0.00073
0 Ni 5dzz        0.00396  -0.00962   0.00384  -0.00267  -0.00087
0 Ni 6dxx       -0.00163   0.00009   0.00231  -0.00480   0.00077
0 Ni 6dxy        0.00030   0.00140  -0.00425  -0.00164  -0.00581
0 Ni 6dxz        0.00051  -0.00094  -0.00795  -0.00089   0.00330
0 Ni 6dyy       -0.00184  -0.00495  -0.00036   0.00352  -0.00127
0 Ni 6dyz       -0.00141  -0.00522  -0.00122  -0.00247  -0.00038
0 Ni 6dzz       -0.00309   0.00474  -0.00189   0.00148   0.00039
0 Ni 4fxxx      -0.00014  -0.00007  -0.00295   0.00057  -0.00009
0 Ni 4fxxy       0.00046  -0.00147   0.00017  -0.00086   0.00094
0 Ni 4fxxz       0.00063   0.00073   0.00025  -0.00178  -0.00017
0 Ni 4fxyy      -0.00085  -0.00003  -0.00235  -0.00082  -0.00176
0 Ni 4fxyz      -0.00219  -0.00000  -0.00074  -0.00026  -0.00183
0 Ni 4fxzz      -0.00290  -0.00009  -0.00313  -0.00023   0.00190
0 Ni 4fyyy       0.00110  -0.00264  -0.00023   0.00136  -0.00047
0 Ni 4fyyz       0.00370   0.00079  -0.00047   0.00042  -0.00064
0 Ni 4fyzz       0.00728  -0.00164  -0.00041  -0.00240   0.00016
0 Ni 4fzzz       0.00719   0.00137  -0.00086   0.00028   0.00049
0 Ni 5fxxx       0.00168   0.00013   0.00740  -0.00023   0.00004
0 Ni 5fxxy      -0.00302   0.00329   0.00032   0.00038  -0.00040
0 Ni 5fxxz      -0.00589  -0.00159   0.00088   0.00078   0.00005
0 Ni 5fxyy       0.00154   0.00024   0.00519   0.00034   0.00074
0 Ni 5fxyz      -0.00100  -0.00017   0.00017  -0.00008  -0.00077
0 Ni 5fxzz      -0.00245   0.00006  -0.00513  -0.00007   0.00079
0 Ni 5fyyy      -0.00458   0.00466   0.00044  -0.00056   0.00018
0 Ni 5fyyz      -0.00732  -0.00231   0.00087  -0.00011   0.00024
0 Ni 5fyzz       0.00599  -0.00307  -0.00028  -0.00110   0.00009
0 Ni 5fzzz      -0.01118  -0.00184   0.00124  -0.00004  -0.00023
0 Ni 5gxxxx     -0.00036  -0.00005  -0.00088   0.00349  -0.00058
0 Ni 5gxxxy     -0.00002  -0.00032   0.00125   0.00040   0.00301
0 Ni 5gxxxz     -0.00002   0.00018   0.00224  -0.00038  -0.00147
0 Ni 5gxxyy     -0.00049   0.00066  -0.00065   0.00068  -0.00053
0 Ni 5gxxyz      0.00021   0.00068  -0.00091   0.00158  -0.00066
0 Ni 5gxxzz     -0.00029  -0.00062  -0.00152   0.00238   0.00007
0 Ni 5gxyyy     -0.00009  -0.00073   0.00147   0.00131   0.00364
0 Ni 5gxyyz     -0.00030  -0.00071   0.00227   0.00094   0.00065
0 Ni 5gxyzz     -0.00053  -0.00053   0.00287   0.00083   0.00225
0 Ni 5gxzzz     -0.00054   0.00107   0.00440   0.00098  -0.00325
0 Ni 5gyyyy     -0.00028   0.00230   0.00019  -0.00298   0.00108
0 Ni 5gyyyz      0.00037   0.00299   0.00046   0.00035   0.00070
0 Ni 5gyyzz      0.00045   0.00245   0.00081  -0.00101   0.00070
0 Ni 5gyzzz      0.00134   0.00161   0.00119   0.00236   0.00010
0 Ni 5gzzzz      0.00079  -0.00378   0.00153  -0.00155  -0.00070
1  O 1s         -0.00051   0.00000  -0.00000   0.00004  -0.00001
1  O 2s         -0.96032   0.00296  -0.00163  -0.01444   0.00422
1  O 3s         -0.00941  -0.00020   0.00012  -0.00145   0.00030
1  O 4s         -0.00474   0.00001  -0.00000   0.00040  -0.00008
1  O 5s          0.00144   0.00008  -0.00005   0.00053  -0.00012
1  O 6s         -0.00057  -0.00010   0.00005  -0.00081   0.00017
1  O 2px         0.01665   0.00668   0.11741  -0.01402   0.00300
1  O 2py        -0.04135   0.29539   0.00486   0.03038  -0.00635
1  O 2pz        -0.07832  -0.15066   0.02079   0.06059  -0.01406
1  O 3px        -0.00027  -0.00057  -0.02913   0.00020  -0.00001
1  O 3py         0.00080  -0.02056  -0.00176   0.00039  -0.00018
1  O 3pz         0.00146   0.01070  -0.00522   0.00023   0.00004
1  O 4px        -0.00190  -0.00014  -0.00271   0.00015  -0.00004
1  O 4py         0.00475  -0.00445  -0.00019  -0.00027   0.00006
1  O 4pz         0.00918   0.00261  -0.00064  -0.00060   0.00016
1  O 5px         0.00070   0.00008   0.00533  -0.00012   0.00002
1  O 5py        -0.00180   0.00325   0.00032   0.00018  -0.00002
1  O 5pz        -0.00359  -0.00175   0.00098   0.00043  -0.00009
1  O 3dxx        0.00679  -0.00017  -0.00184  -0.00170   0.00036
1  O 3dxy       -0.00288   0.00148  -0.00296   0.00053   0.00030
1  O 3dxz       -0.00573  -0.00105  -0.00561   0.00080  -0.00042
1  O 3dyy       -0.00087   0.00592   0.00034  -0.00040   0.00003
1  O 3dyz        0.01160  -0.00565  -0.00087  -0.00202   0.00056
1  O 3dzz       -0.01189  -0.00585   0.00156   0.00139  -0.00023
1  O 4dxx        0.00420   0.00023  -0.00158  -0.00173   0.00023
1  O 4dxy       -0.00058  -0.00092   0.00289  -0.00094  -0.00380
1  O 4dxz       -0.00123   0.00067   0.00542  -0.00039   0.00211
1  O 4dyy        0.00722   0.00317   0.00007   0.00334  -0.00100
1  O 4dyz        0.00133   0.00326   0.00093  -0.00242  -0.00005
1  O 4dzz        0.00830  -0.00300   0.00127   0.00150   0.00012
1  O 5dxx       -0.00192   0.00008  -0.00151  -0.00388   0.00063
1  O 5dxy        0.00052  -0.00105   0.00290  -0.00141  -0.00516
1  O 5dxz        0.00083   0.00077   0.00544  -0.00075   0.00295
1  O 5dyy       -0.00094   0.00356   0.00016   0.00316  -0.00108
1  O 5dyz       -0.00335   0.00374   0.00096  -0.00263  -0.00023
1  O 5dzz       -0.00401  -0.00371   0.00139   0.00122   0.00035
1  O 4fxxx      -0.00010  -0.00003  -0.00425   0.00012  -0.00002
1  O 4fxxy      -0.00009  -0.00073  -0.00068  -0.00011   0.00016
1  O 4fxxz      -0.00004   0.00043  -0.00145  -0.00030  -0.00004
1  O 4fxyy       0.00033  -0.00046  -0.00233  -0.00017  -0.00032
1  O 4fxyz       0.00104  -0.00029   0.00177  -0.00023  -0.00028
1  O 4fxzz       0.00128   0.00040  -0.00057  -0.00021   0.00040
1  O 4fyyy      -0.00004  -0.00172  -0.00023   0.00021  -0.00009
1  O 4fyyz      -0.00142   0.00333  -0.00027   0.00025  -0.00016
1  O 4fyzz      -0.00326  -0.00058   0.00046   0.00023  -0.00013
1  O 4fzzz      -0.00234  -0.00062  -0.00015   0.00045   0.00001
               #16       #17       #18       #19       #20      
0 Ni 1s          0.00034  -0.00000  -0.00000  -0.00040   0.00003
0 Ni 2s         -0.00085   0.00000   0.00000   0.00158  -0.00012
0 Ni 3s          0.00688   0.00000   0.00000   0.00112  -0.00156
0 Ni 4s         -0.09940  -0.00023   0.00005   0.72592   0.22120
0 Ni 5s         -0.00685   0.00015  -0.00005   0.05729  -0.10876
0 Ni 6s          0.00213   0.00003  -0.00002  -0.03568   0.13354
0 Ni 2px         0.00005   0.00000   0.00012   0.00001   0.00003
0 Ni 2py        -0.00012   0.00014   0.00001  -0.00003  -0.00007
0 Ni 2pz        -0.00023  -0.00007   0.00002  -0.00006  -0.00013
0 Ni 3px        -0.00169  -0.00006  -0.00350   0.00034  -0.00050
0 Ni 3py         0.00421  -0.00264  -0.00023  -0.00085   0.00124
0 Ni 3pz         0.00805   0.00137  -0.00061  -0.00162   0.00237
0 Ni 4px        -0.00141  -0.00110  -0.03256  -0.01245  -0.05873
0 Ni 4py         0.00357  -0.05309  -0.00205   0.03089   0.14732
0 Ni 4pz         0.00714   0.02742  -0.00585   0.05869   0.28630
0 Ni 5px        -0.00351   0.00027   0.00224   0.00362   0.07184
0 Ni 5py         0.00883   0.01083   0.00014  -0.00901  -0.17981
0 Ni 5pz         0.01732  -0.00538   0.00041  -0.01786  -0.34801
0 Ni 6px        -0.00201  -0.00004  -0.01141   0.00210   0.09547
0 Ni 6py         0.00498  -0.00503  -0.00071  -0.00524  -0.23793
0 Ni 6pz         0.00922   0.00230  -0.00186  -0.01006  -0.45575
0 Ni 7px         0.00121  -0.00014  -0.00580  -0.00052   0.05448
0 Ni 7py        -0.00302  -0.00614  -0.00041   0.00128  -0.13542
0 Ni 7pz        -0.00587   0.00321  -0.00106   0.00263  -0.25758
0 Ni 3dxx       -0.02634   0.00167   0.03109   0.37071  -0.15845
0 Ni 3dxy        0.03829   0.04935  -0.05077   0.08553  -0.04157
0 Ni 3dxz        0.05978  -0.03266  -0.09613   0.15792  -0.07786
0 Ni 3dyy        0.01816  -0.18747  -0.00514   0.28001  -0.10744
0 Ni 3dyz       -0.22319  -0.18179  -0.01575  -0.41973   0.20202
0 Ni 3dzz       -0.20090   0.18556  -0.02590  -0.13244   0.09252
0 Ni 4dxx        0.00154  -0.00027  -0.00300   0.01519  -0.07741
0 Ni 4dxy        0.00109  -0.00470   0.00579   0.00458  -0.02934
0 Ni 4dxz        0.00189   0.00293   0.01092   0.00812  -0.05497
0 Ni 4dyy        0.00033   0.01618   0.00045   0.00784  -0.03578
0 Ni 4dyz       -0.00494   0.01732   0.00171  -0.01982   0.13685
0 Ni 4dzz       -0.00416  -0.01580   0.00250  -0.01241   0.09381
0 Ni 5dxx        0.00827  -0.00004  -0.00022  -0.01105   0.08733
0 Ni 5dxy       -0.00266  -0.00200  -0.00010   0.00035  -0.02772
0 Ni 5dxz       -0.00510   0.00137  -0.00022   0.00048  -0.05215
0 Ni 5dyy        0.00497  -0.00670   0.00012  -0.00872   0.04767
0 Ni 5dyz        0.01310   0.00731   0.00007   0.00016   0.12927
0 Ni 5dzz       -0.00764   0.00667   0.00014  -0.00842  -0.07308
0 Ni 6dxx        0.00352  -0.00002   0.00162  -0.00719  -0.04861
0 Ni 6dxy       -0.00146  -0.00020  -0.00275   0.00017  -0.01660
0 Ni 6dxz       -0.00263   0.00026  -0.00520   0.00039  -0.03140
0 Ni 6dyy        0.00488   0.00036  -0.00023  -0.00848  -0.02574
0 Ni 6dyz        0.00697   0.00067  -0.00071  -0.00020   0.07788
0 Ni 6dzz        0.01110  -0.00078  -0.00117  -0.00876   0.04407
0 Ni 4fxxx       0.00052   0.00026   0.00861   0.00304   0.02728
0 Ni 4fxxy      -0.00105   0.00777  -0.00120  -0.00501  -0.03333
0 Ni 4fxxz      -0.00170  -0.00387  -0.00207  -0.00995  -0.06463
0 Ni 4fxyy       0.00125  -0.00154   0.00721   0.00142   0.01246
0 Ni 4fxyz       0.00273  -0.00168   0.00514  -0.00230  -0.00250
0 Ni 4fxzz       0.00379   0.00196   0.01204  -0.00080   0.00993
0 Ni 4fyyy      -0.00227   0.01456   0.00070  -0.00712  -0.06693
0 Ni 4fyyz      -0.00554   0.00358   0.00164  -0.00695  -0.06070
0 Ni 4fyzz      -0.00949   0.01132   0.00204   0.00255  -0.02510
0 Ni 4fzzz      -0.01050  -0.01184   0.00325  -0.00770  -0.12247
0 Ni 5fxxx      -0.00250  -0.00078  -0.02595  -0.00835  -0.01558
0 Ni 5fxxy       0.00435  -0.02561  -0.00031   0.01344   0.02722
0 Ni 5fxxz       0.00838   0.01317  -0.00155   0.02575   0.05409
0 Ni 5fxyy      -0.00208   0.00035  -0.01859  -0.00507  -0.00999
0 Ni 5fxyz       0.00113  -0.00092   0.00281  -0.00136  -0.00226
0 Ni 5fxzz       0.00305   0.00142   0.02115   0.00376   0.00768
0 Ni 5fyyy       0.00666  -0.03898  -0.00172   0.02043   0.03832
0 Ni 5fyyz       0.00990   0.00933  -0.00348   0.02398   0.05054
0 Ni 5fyzz      -0.00760   0.02753   0.00199  -0.00904  -0.01966
0 Ni 5fzzz       0.01522   0.02225  -0.00548   0.03536   0.06992
0 Ni 5gxxxx      0.00160  -0.00001  -0.00050  -0.00150   0.03082
0 Ni 5gxxxy      0.00038   0.00004   0.00057   0.00018   0.00156
0 Ni 5gxxxz      0.00064  -0.00001   0.00108   0.00030   0.00294
0 Ni 5gxxyy      0.00167  -0.00017  -0.00013  -0.00159   0.02222
0 Ni 5gxxyz     -0.00129  -0.00023   0.00003  -0.00072  -0.00635
0 Ni 5gxxzz      0.00048   0.00014  -0.00006  -0.00220   0.01704
0 Ni 5gxyyy      0.00042   0.00011   0.00057   0.00028   0.00148
0 Ni 5gxyyz      0.00077   0.00007   0.00052   0.00058   0.00232
0 Ni 5gxyzz      0.00102   0.00010   0.00035   0.00093   0.00081
0 Ni 5gxzzz      0.00133  -0.00018   0.00115   0.00116   0.00229
0 Ni 5gyyyy      0.00143  -0.00005   0.00010  -0.00134   0.02894
0 Ni 5gyyyz     -0.00210  -0.00041   0.00017  -0.00152  -0.00689
0 Ni 5gyyzz     -0.00073  -0.00035   0.00016  -0.00331   0.01616
0 Ni 5gyzzz     -0.00385  -0.00015   0.00017  -0.00324  -0.00565
0 Ni 5gzzzz     -0.00243   0.00032   0.00041  -0.00436   0.02468
1  O 1s          0.00037   0.00000   0.00000   0.00020  -0.00006
1  O 2s         -0.16543  -0.00103   0.00020   0.06780   0.06494
1  O 3s         -0.01133   0.00042  -0.00012   0.04946   0.08214
1  O 4s          0.00745   0.00012  -0.00005  -0.01834  -0.06788
1  O 5s         -0.00073  -0.00018   0.00004   0.01399   0.04235
1  O 6s         -0.00383   0.00003   0.00002  -0.00413  -0.03327
1  O 2px        -0.16982   0.01990   0.97304   0.00825  -0.01948
1  O 2py         0.42336   0.83083   0.06529  -0.02092   0.04873
1  O 2pz         0.80830  -0.43095   0.17013  -0.04302   0.09464
1  O 3px        -0.00346   0.00149   0.02760   0.00403  -0.01055
1  O 3py         0.00853   0.07037   0.00168  -0.01019   0.02835
1  O 3pz         0.01646  -0.03593   0.00447  -0.01953   0.06497
1  O 4px         0.00338  -0.00003  -0.01347   0.00509   0.01406
1  O 4py        -0.00824  -0.00501  -0.00077  -0.01273  -0.03461
1  O 4pz        -0.01591   0.00220  -0.00212  -0.02423  -0.06396
1  O 5px         0.00018  -0.00021  -0.00594   0.00246   0.01531
1  O 5py        -0.00050  -0.00974  -0.00044  -0.00604  -0.03865
1  O 5pz        -0.00067   0.00495  -0.00108  -0.01125  -0.07672
1  O 3dxx       -0.01546  -0.00028  -0.00845   0.00235  -0.02766
1  O 3dxy        0.00567   0.00519  -0.01498   0.00230  -0.00244
1  O 3dxz        0.01069  -0.00320  -0.02834   0.00425  -0.00394
1  O 3dyy       -0.00770   0.01830   0.00144   0.00681  -0.03036
1  O 3dyz       -0.02694  -0.01909  -0.00444  -0.00960   0.00901
1  O 3dzz        0.01817  -0.01780   0.00694   0.01566  -0.03345
1  O 4dxx        0.00970  -0.00016   0.00501  -0.03630  -0.07198
1  O 4dxy        0.00097   0.00351  -0.00903  -0.00092  -0.00555
1  O 4dxz        0.00178  -0.00221  -0.01707  -0.00181  -0.00934
1  O 4dyy        0.00841  -0.01208  -0.00076  -0.03731  -0.06379
1  O 4dyz       -0.00445  -0.01280  -0.00268   0.00633   0.02114
1  O 4dzz        0.00437   0.01133  -0.00396  -0.03128  -0.05140
1  O 5dxx        0.00218  -0.00004   0.00258  -0.01839  -0.03534
1  O 5dxy       -0.00087   0.00187  -0.00489  -0.00328  -0.00724
1  O 5dxz       -0.00157  -0.00138  -0.00927  -0.00623  -0.01218
1  O 5dyy        0.00326  -0.00593  -0.00046  -0.01589  -0.02479
1  O 5dyz        0.00396  -0.00679  -0.00158   0.01697   0.02785
1  O 5dzz        0.00672   0.00616  -0.00216  -0.00096  -0.00787
1  O 4fxxx      -0.00136   0.00035   0.01198  -0.00015  -0.00446
1  O 4fxxy       0.00237   0.00915   0.00065   0.00042   0.00682
1  O 4fxxz       0.00423  -0.00462   0.00221   0.00062   0.01400
1  O 4fxyy      -0.00073  -0.00018   0.00106  -0.00066  -0.00165
1  O 4fxyz      -0.00121  -0.00021   0.00298  -0.00139   0.00336
1  O 4fxzz      -0.00164   0.00027   0.00404  -0.00188   0.00163
1  O 4fyyy       0.00190   0.01200   0.00017   0.00100   0.00997
1  O 4fyyz       0.00430  -0.00030   0.00045   0.00267   0.00912
1  O 4fyzz       0.00665   0.00804   0.00088   0.00446  -0.00376
1  O 4fzzz       0.00765  -0.00769   0.00113   0.00456   0.01237
               #21       #22       #23       #24       #25      
0 Ni 1s         -0.00000  -0.00000  -0.00005   0.00016   0.00000
0 Ni 2s          0.00000   0.00000   0.00022  -0.00054  -0.00008
0 Ni 3s          0.00000   0.00000   0.00067   0.00312   0.00367
0 Ni 4s         -0.00001   0.00001  -0.39324   0.01027  -0.21033
0 Ni 5s         -0.00003   0.00006   0.48034  -0.42598  -0.02295
0 Ni 6s         -0.00025   0.00047  -0.27726   0.24820   0.19874
0 Ni 2px         0.00015   0.00000  -0.00001  -0.00005  -0.00006
0 Ni 2py         0.00001   0.00013   0.00004   0.00012   0.00014
0 Ni 2pz         0.00003  -0.00007   0.00007   0.00023   0.00027
0 Ni 3px        -0.00140  -0.00001   0.00051   0.00035   0.00108
0 Ni 3py        -0.00010  -0.00114  -0.00127  -0.00087  -0.00269
0 Ni 3pz        -0.00024   0.00059  -0.00244  -0.00167  -0.00515
0 Ni 4px        -0.42486  -0.00581  -0.02576   0.02974   0.02978
0 Ni 4py        -0.03118  -0.38721   0.06390  -0.07608  -0.07404
0 Ni 4pz        -0.07448   0.20431   0.11915  -0.15544  -0.14153
0 Ni 5px         0.44757   0.00638   0.02904  -0.00598   0.02526
0 Ni 5py         0.03310   0.40533  -0.07263   0.01582  -0.06297
0 Ni 5pz         0.07819  -0.21360  -0.13999   0.03464  -0.12001
0 Ni 6px         0.53537   0.00781   0.03987   0.02415   0.05015
0 Ni 6py         0.03968   0.48156  -0.09950  -0.06019  -0.12482
0 Ni 6pz         0.09253  -0.25192  -0.19129  -0.11523  -0.23777
0 Ni 7px         0.27628   0.00387   0.03295   0.03806   0.04125
0 Ni 7py         0.02021   0.24763  -0.08210  -0.09536  -0.10270
0 Ni 7pz         0.04675  -0.12740  -0.15734  -0.18499  -0.19605
0 Ni 3dxx       -0.00221  -0.00008   0.23645  -0.09873   0.09196
0 Ni 3dxy        0.00372  -0.00304   0.03492   0.02930   0.05829
0 Ni 3dxz        0.00708   0.00192   0.06542   0.05494   0.10910
0 Ni 3dyy        0.00044   0.01137   0.19298  -0.13583   0.01955
0 Ni 3dyz        0.00122   0.01105  -0.16935  -0.14173  -0.28246
0 Ni 3dzz        0.00177  -0.01128   0.02505  -0.27627  -0.26015
0 Ni 4dxx        0.02757   0.00191   0.04036   0.01981   0.04195
0 Ni 4dxy       -0.04846   0.01706   0.00348   0.02478   0.01390
0 Ni 4dxz       -0.09237  -0.01022   0.00578   0.04582   0.02585
0 Ni 4dyy       -0.00595  -0.06134   0.03907  -0.01648   0.02704
0 Ni 4dyz       -0.01480  -0.06341  -0.01675  -0.11215  -0.06926
0 Ni 4dzz       -0.02179   0.05975   0.02552  -0.11790  -0.04339
0 Ni 5dxx       -0.03287  -0.00194  -0.05987   0.01015   0.01213
0 Ni 5dxy       -0.05728   0.02026  -0.00102   0.02591  -0.00499
0 Ni 5dxz       -0.10911  -0.01210  -0.00247   0.04825  -0.01004
0 Ni 5dyy        0.00684   0.07324  -0.06380   0.05011   0.00123
0 Ni 5dyz       -0.01760  -0.07483   0.00400  -0.11784   0.02132
0 Ni 5dzz        0.02611  -0.07145  -0.06671   0.16150  -0.01514
0 Ni 6dxx        0.02583   0.00069  -0.04791   0.02710  -0.05447
0 Ni 6dxy       -0.04579   0.01637  -0.00157   0.02112  -0.00878
0 Ni 6dxz       -0.08714  -0.00973  -0.00327   0.03977  -0.01731
0 Ni 6dyy       -0.00483  -0.05791  -0.04413  -0.00565  -0.04009
0 Ni 6dyz       -0.01411  -0.06011   0.00613  -0.09703   0.04043
0 Ni 6dzz       -0.02006   0.05542  -0.04171  -0.09736  -0.00745
0 Ni 4fxxx       0.19165   0.00256   0.00595  -0.00890   0.02694
0 Ni 4fxxy       0.00751   0.08725  -0.00691   0.01459  -0.02607
0 Ni 4fxxz       0.01758  -0.04543  -0.01374   0.02843  -0.05006
0 Ni 4fxyy       0.09546   0.00180   0.00179  -0.00604   0.01046
0 Ni 4fxyz      -0.00161   0.00052  -0.00270  -0.00033   0.00002
0 Ni 4fxzz       0.09387   0.00081  -0.00140  -0.00679   0.01051
0 Ni 4fyyy       0.01387   0.17283  -0.01347   0.02293  -0.06729
0 Ni 4fyyz       0.01631  -0.04766  -0.00909   0.02956  -0.05015
0 Ni 4fyzz       0.00648   0.08616   0.00349   0.01699  -0.02613
0 Ni 4fzzz       0.03232  -0.08850  -0.01645   0.04799  -0.12907
0 Ni 5fxxx      -0.13988  -0.00173  -0.00450   0.02537   0.02352
0 Ni 5fxxy      -0.00733  -0.08965   0.00627  -0.04247  -0.03850
0 Ni 5fxxz      -0.01767   0.04727   0.01149  -0.08435  -0.07317
0 Ni 5fxyy      -0.09706  -0.00152  -0.00179   0.01689   0.01558
0 Ni 5fxyz      -0.00086   0.00029  -0.00191   0.00014  -0.00015
0 Ni 5fxzz       0.09619   0.00099  -0.00071  -0.01721  -0.01578
0 Ni 5fyyy      -0.01003  -0.12853   0.00993  -0.06464  -0.05859
0 Ni 5fyyz      -0.01699   0.04853   0.00787  -0.08483  -0.07350
0 Ni 5fyzz       0.00678   0.08904   0.00186   0.04350   0.03924
0 Ni 5fzzz      -0.02427   0.06709   0.00977  -0.13108  -0.11238
0 Ni 5gxxxx     -0.00622  -0.00034  -0.00295   0.03762   0.00005
0 Ni 5gxxxy      0.00884  -0.00318  -0.00207  -0.00639  -0.00406
0 Ni 5gxxxz      0.01683   0.00189  -0.00379  -0.01205  -0.00750
0 Ni 5gxxyy     -0.00226   0.00621  -0.00567   0.02744   0.00417
0 Ni 5gxxyz      0.00159   0.00710   0.00439   0.01605   0.00790
0 Ni 5gxxzz     -0.00064  -0.00640  -0.00118   0.04185   0.01246
0 Ni 5gxyyy      0.00885  -0.00319  -0.00207  -0.00633  -0.00403
0 Ni 5gxyyz      0.01031   0.00112  -0.00158  -0.00637  -0.00285
0 Ni 5gxyzz      0.00552  -0.00194  -0.00081  -0.00297  -0.00139
0 Ni 5gxzzz      0.01693   0.00192  -0.00381  -0.01158  -0.00726
0 Ni 5gyyyy      0.00128   0.01412   0.00072   0.05134   0.00780
0 Ni 5gyyyz      0.00273   0.01176   0.01010   0.02900   0.01962
0 Ni 5gyyzz      0.00287   0.00022  -0.00023   0.04644   0.01397
0 Ni 5gyzzz      0.00276   0.01172   0.01017   0.02806   0.01916
0 Ni 5gzzzz      0.00496  -0.01378   0.01675   0.08808   0.03867
1  O 1s          0.00000   0.00000  -0.00016  -0.00004   0.00000
1  O 2s         -0.00002   0.00006  -0.08630  -0.04565  -0.09113
1  O 3s          0.00040  -0.00079  -0.11280  -0.09282  -0.07732
1  O 4s         -0.00006   0.00014  -0.02355  -0.00166   0.07941
1  O 5s         -0.00054   0.00103   0.02756   0.01384  -0.12643
1  O 6s          0.00068  -0.00132  -0.08799  -0.02655   0.07001
1  O 2px        -0.02216  -0.00078   0.01677   0.01816   0.03045
1  O 2py        -0.00178  -0.04238  -0.04196  -0.04539  -0.07616
1  O 2pz        -0.00373   0.02204  -0.08147  -0.08783  -0.14770
1  O 3px         0.12332   0.00201   0.05385   0.07116  -0.06763
1  O 3py         0.00906   0.10601  -0.13397  -0.17984   0.16880
1  O 3pz         0.01873  -0.05048  -0.25643  -0.35656   0.32187
1  O 4px         0.17517   0.00242   0.04691   0.05202  -0.06045
1  O 4py         0.01276   0.15485  -0.11692  -0.13034   0.15081
1  O 4pz         0.02925  -0.07890  -0.22409  -0.25329   0.28906
1  O 5px         0.12912   0.00153   0.03531   0.04568  -0.05079
1  O 5py         0.00920   0.11655  -0.08791  -0.11331   0.12651
1  O 5pz         0.02206  -0.06015  -0.16755  -0.21390   0.24151
1  O 3dxx       -0.01158  -0.00138  -0.08659  -0.02195  -0.08396
1  O 3dxy       -0.02095   0.00740   0.00713   0.00523   0.00098
1  O 3dxz       -0.03989  -0.00385   0.01337   0.00943   0.00173
1  O 3dyy        0.00267   0.02552  -0.07770  -0.01376  -0.08138
1  O 3dyz       -0.00585  -0.02758  -0.03440  -0.02297  -0.00445
1  O 3dzz        0.00912  -0.02454  -0.04485   0.00871  -0.07367
1  O 4dxx        0.02189   0.00237   0.04065   0.02836   0.11515
1  O 4dxy       -0.04033   0.01397   0.00486   0.01246  -0.00063
1  O 4dxz       -0.07685  -0.00801   0.00889   0.02260  -0.00141
1  O 4dyy       -0.00513  -0.04773   0.03726   0.01010   0.11361
1  O 4dyz       -0.01198  -0.05200  -0.02449  -0.05476   0.00371
1  O 4dzz       -0.01768   0.04715   0.01578  -0.03755   0.11146
1  O 5dxx        0.03000   0.00157   0.03031   0.04752   0.08600
1  O 5dxy       -0.05524   0.01887   0.00013   0.02142  -0.00161
1  O 5dxz       -0.10533  -0.01155  -0.00008   0.03909  -0.00341
1  O 5dyy       -0.00623  -0.06473   0.03474   0.01822   0.08519
1  O 5dyz       -0.01712  -0.07024  -0.00259  -0.09511   0.00837
1  O 5dzz       -0.02334   0.06237   0.03573  -0.05891   0.08415
1  O 4fxxx       0.00815   0.00030  -0.01197  -0.01944   0.01973
1  O 4fxxy      -0.00041  -0.00021   0.01414   0.02210  -0.02417
1  O 4fxxz      -0.00097   0.00001   0.02653   0.04071  -0.04561
1  O 4fxyy       0.00078  -0.00055  -0.00678  -0.00920   0.01060
1  O 4fxyz       0.00148  -0.00086  -0.00357  -0.00012   0.00284
1  O 4fxzz       0.00229   0.00033  -0.01005  -0.01043   0.01358
1  O 4fyyy       0.00081   0.00898   0.03115   0.04870  -0.05016
1  O 4fyyz       0.00004   0.00221   0.03155   0.04218  -0.04989
1  O 4fyzz       0.00021   0.00200   0.02494   0.02587  -0.03418
1  O 4fzzz       0.00186  -0.00571   0.06710   0.09658  -0.10399
               #26       #27       #28       #29       #30      
0 Ni 1s         -0.00000   0.00000  -0.00000   0.00000  -0.00001
0 Ni 2s          0.00000  -0.00000   0.00000  -0.00000   0.00007
0 Ni 3s         -0.00000   0.00000  -0.00000   0.00000  -0.00174
0 Ni 4s          0.00001   0.00002  -0.00000   0.00002   0.27976
0 Ni 5s         -0.00006   0.00012   0.00004  -0.00012   0.13301
0 Ni 6s          0.00028  -0.00054  -0.00022   0.00043  -0.04767
0 Ni 2px        -0.00004  -0.00000   0.00044  -0.00000   0.00000
0 Ni 2py        -0.00000  -0.00003   0.00004   0.00040  -0.00000
0 Ni 2pz        -0.00001   0.00002   0.00007  -0.00021  -0.00001
0 Ni 3px         0.00063   0.00001  -0.00346   0.00003  -0.00084
0 Ni 3py         0.00004   0.00060  -0.00030  -0.00282   0.00209
0 Ni 3pz         0.00011  -0.00031  -0.00057   0.00148   0.00400
0 Ni 4px         0.12818   0.00219  -0.47133   0.00297   0.02190
0 Ni 4py         0.00870   0.11408  -0.04317  -0.42725  -0.05618
0 Ni 4pz         0.02451  -0.06309  -0.07812   0.22765  -0.10986
0 Ni 5px        -0.09402  -0.00202  -0.05789   0.00039  -0.01177
0 Ni 5py        -0.00675  -0.08693  -0.00507  -0.05134   0.03003
0 Ni 5pz        -0.01847   0.04922  -0.00812   0.02410   0.05764
0 Ni 6px        -0.02990  -0.00107  -0.38171   0.00244  -0.01816
0 Ni 6py        -0.00252  -0.02975  -0.03463  -0.34550   0.04482
0 Ni 6pz        -0.00609   0.01748  -0.06121   0.17961   0.08312
0 Ni 7px         0.04619   0.00081  -0.45987   0.00268   0.01229
0 Ni 7py         0.00325   0.03820  -0.04215  -0.41572  -0.03123
0 Ni 7pz         0.00897  -0.02155  -0.07505   0.21915  -0.06148
0 Ni 3dxx       -0.00530  -0.00015  -0.00367  -0.00004  -0.09021
0 Ni 3dxy        0.00908  -0.00437   0.00607  -0.00424  -0.03423
0 Ni 3dxz        0.01722   0.00289   0.01176   0.00237  -0.06427
0 Ni 3dyy        0.00090   0.01637   0.00102   0.01541  -0.04630
0 Ni 3dyz        0.00287   0.01609   0.00232   0.01494   0.16541
0 Ni 3dzz        0.00441  -0.01621   0.00265  -0.01535   0.11779
0 Ni 4dxx       -0.02654  -0.00273   0.04155   0.00120  -0.02749
0 Ni 4dxy        0.04915  -0.01605  -0.06992   0.02659  -0.01611
0 Ni 4dxz        0.09357   0.01005  -0.13438  -0.01247  -0.02957
0 Ni 4dyy        0.00581   0.05583  -0.01027  -0.09332  -0.02289
0 Ni 4dyz        0.01416   0.06164  -0.02367  -0.09222   0.09089
0 Ni 4dzz        0.02093  -0.05348  -0.03133   0.09223   0.07370
0 Ni 5dxx        0.04642   0.00304  -0.03090  -0.00110   0.02130
0 Ni 5dxy        0.08520  -0.02900  -0.05025   0.01925  -0.01401
0 Ni 5dxz        0.16179   0.01851  -0.09669  -0.00898  -0.02563
0 Ni 5dyy       -0.00907  -0.10134   0.00776   0.06981   0.02090
0 Ni 5dyz        0.02542   0.10904  -0.01694  -0.06705   0.08057
0 Ni 5dzz       -0.03747   0.09851   0.02321  -0.06886  -0.06218
0 Ni 6dxx       -0.04001  -0.00118   0.01793   0.00027  -0.03209
0 Ni 6dxy        0.07579  -0.02621  -0.02805   0.01089  -0.01083
0 Ni 6dxz        0.14380   0.01688  -0.05392  -0.00492  -0.01943
0 Ni 6dyy        0.00692   0.08837  -0.00423  -0.04080  -0.03419
0 Ni 6dyz        0.02300   0.09762  -0.00925  -0.03806   0.06199
0 Ni 6dzz        0.03200  -0.08515  -0.01289   0.03892   0.02510
0 Ni 4fxxx      -0.01922  -0.00027  -0.18049   0.00092   0.00058
0 Ni 4fxxy      -0.00115  -0.01022  -0.00494  -0.05236   0.00138
0 Ni 4fxxz      -0.00301   0.00559  -0.00852   0.02746   0.00338
0 Ni 4fxyy      -0.00941  -0.00057  -0.05946   0.00078   0.00023
0 Ni 4fxyz       0.00102  -0.00030  -0.00192   0.00065   0.00221
0 Ni 4fxzz      -0.00777   0.00019  -0.06096  -0.00014   0.00226
0 Ni 4fyyy      -0.00107  -0.01893  -0.01670  -0.16222  -0.00210
0 Ni 4fyyz      -0.00175   0.00765  -0.00979   0.02544   0.00020
0 Ni 4fyzz      -0.00021  -0.00913  -0.00595  -0.05342  -0.00505
0 Ni 4fzzz      -0.00285   0.00884  -0.02967   0.08608  -0.00757
0 Ni 5fxxx       0.05494   0.00065  -0.33162   0.00218   0.00801
0 Ni 5fxxy       0.00243   0.02507  -0.01979  -0.19641  -0.01472
0 Ni 5fxxz       0.00687  -0.01399  -0.03562   0.10369  -0.02962
0 Ni 5fxyy       0.02774   0.00085  -0.21657   0.00133   0.00530
0 Ni 5fxyz       0.00120  -0.00035  -0.00065   0.00025   0.00122
0 Ni 5fxzz      -0.02576   0.00018   0.21641  -0.00144  -0.00431
0 Ni 5fyyy       0.00335   0.04733  -0.03023  -0.30086  -0.02056
0 Ni 5fyyz       0.00532  -0.01654  -0.03549   0.10405  -0.02807
0 Ni 5fyzz      -0.00122  -0.02379   0.01973   0.19619   0.01165
0 Ni 5fzzz       0.00952  -0.02412  -0.05454   0.15929  -0.03956
0 Ni 5gxxxx     -0.00016   0.00021  -0.01494  -0.00029   0.03732
0 Ni 5gxxxy     -0.00271   0.00079   0.01764  -0.00669   0.00190
0 Ni 5gxxxz     -0.00522  -0.00054   0.03381   0.00307   0.00303
0 Ni 5gxxyy      0.00114  -0.00293  -0.00403   0.01143   0.02485
0 Ni 5gxxyz     -0.00108  -0.00437   0.00262   0.01170  -0.00688
0 Ni 5gxxzz      0.00014   0.00326  -0.00181  -0.01146   0.01854
0 Ni 5gxyyy     -0.00269   0.00073   0.01770  -0.00684   0.00196
0 Ni 5gxyyz     -0.00676  -0.00079   0.01739   0.00129   0.00188
0 Ni 5gxyzz     -0.00354   0.00112   0.00964  -0.00350   0.00147
0 Ni 5gxzzz     -0.00501  -0.00045   0.03464   0.00337   0.00355
0 Ni 5gyyyy     -0.00013   0.00127   0.00360   0.03362   0.04278
0 Ni 5gyyyz     -0.00082  -0.00285   0.00600   0.02373  -0.01287
0 Ni 5gyyzz     -0.00157   0.00028   0.00533   0.00106   0.01975
0 Ni 5gyzzz     -0.00075  -0.00301   0.00626   0.02320  -0.01391
0 Ni 5gzzzz      0.00022  -0.00140   0.01155  -0.03377   0.02524
1  O 1s         -0.00000  -0.00000   0.00000  -0.00000   0.00037
1  O 2s         -0.00003   0.00009  -0.00002   0.00009   0.08629
1  O 3s         -0.00054   0.00101   0.00050  -0.00106  -0.20554
1  O 4s         -0.00012   0.00019  -0.00014   0.00032   0.21072
1  O 5s          0.00079  -0.00143  -0.00047   0.00095  -0.38433
1  O 6s         -0.00079   0.00147   0.00069  -0.00144   0.20925
1  O 2px         0.00870  -0.00043  -0.04464  -0.00019  -0.01759
1  O 2py         0.00056  -0.01697  -0.00460  -0.05883   0.04401
1  O 2pz         0.00152   0.00885  -0.00698   0.03078   0.08535
1  O 3px         0.63303   0.01245   0.20616  -0.00096   0.01202
1  O 3py         0.04302   0.58097   0.01875   0.17375  -0.03112
1  O 3pz         0.11364  -0.30729   0.03174  -0.08765  -0.05585
1  O 4px         0.46713   0.00950   0.09030  -0.00067   0.01251
1  O 4py         0.03199   0.42266   0.00797   0.07184  -0.03144
1  O 4pz         0.08244  -0.22117   0.01419  -0.03655  -0.06015
1  O 5px         0.36767   0.00766  -0.00116  -0.00042   0.01745
1  O 5py         0.02527   0.33107  -0.00059  -0.00576  -0.04329
1  O 5pz         0.06391  -0.17149  -0.00048   0.00409  -0.08347
1  O 3dxx        0.00995   0.00175  -0.01278  -0.00095  -0.24504
1  O 3dxy        0.01931  -0.00657  -0.02507   0.00962   0.00825
1  O 3dxz        0.03677   0.00365  -0.04813  -0.00397   0.01687
1  O 3dyy       -0.00247  -0.02172   0.00333   0.02860  -0.22494
1  O 3dyz        0.00505   0.02548  -0.00800  -0.03336  -0.03544
1  O 3dzz       -0.00778   0.02056   0.00964  -0.02805  -0.18990
1  O 4dxx       -0.02362  -0.00330   0.02565   0.00171   0.22285
1  O 4dxy        0.04550  -0.01519  -0.04930   0.01838   0.01704
1  O 4dxz        0.08656   0.00926  -0.09473  -0.00835   0.03456
1  O 4dyy        0.00561   0.05081  -0.00682  -0.05613   0.18372
1  O 4dyz        0.01291   0.05814  -0.01646  -0.06376  -0.07368
1  O 4dzz        0.01934  -0.05000  -0.01980   0.05647   0.11496
1  O 5dxx       -0.04045  -0.00233   0.03618   0.00086   0.30057
1  O 5dxy        0.07572  -0.02535  -0.06819   0.02506   0.02431
1  O 5dxz        0.14392   0.01632  -0.13112  -0.01208   0.04871
1  O 5dyy        0.00777   0.08708  -0.00893  -0.07846   0.25050
1  O 5dyz        0.02259   0.09592  -0.02338  -0.08715  -0.10734
1  O 5dzz        0.03192  -0.08343  -0.02697   0.07708   0.15423
1  O 4fxxx      -0.20242  -0.00424  -0.03190   0.00045  -0.01433
1  O 4fxxy      -0.00607  -0.08477  -0.00077  -0.01133   0.01609
1  O 4fxxz      -0.01565   0.04403  -0.00147   0.00546   0.03080
1  O 4fxyy      -0.09415  -0.00147  -0.01379   0.00019  -0.00654
1  O 4fxyz      -0.00172   0.00061  -0.00031  -0.00058  -0.00017
1  O 4fxzz      -0.09583  -0.00211  -0.01483  -0.00031  -0.00694
1  O 4fyyy      -0.01390  -0.18277  -0.00273  -0.02572   0.03571
1  O 4fyyz      -0.01639   0.04130  -0.00255   0.00474   0.03122
1  O 4fyzz      -0.00664  -0.08596  -0.00198  -0.01011   0.01731
1  O 4fzzz      -0.03551   0.09571  -0.00576   0.01449   0.07003
               #31       #32       #33       #34       #35      
0 Ni 1s          0.00000  -0.00000   0.00002   0.00000   0.00000
0 Ni 2s         -0.00000   0.00001  -0.00001  -0.00000  -0.00000
0 Ni 3s          0.00000   0.00006   0.00355   0.00000   0.00000
0 Ni 4s         -0.00032   0.00819  -0.18080  -0.00001   0.00003
0 Ni 5s          0.00030  -0.00586  -0.14243  -0.00070   0.00143
0 Ni 6s         -0.00053   0.00648   0.16029   0.00032  -0.00060
0 Ni 2px         0.00000   0.00000   0.00000   0.00010   0.00000
0 Ni 2py        -0.00000  -0.00000  -0.00001   0.00001   0.00010
0 Ni 2pz        -0.00000  -0.00000  -0.00002   0.00002  -0.00005
0 Ni 3px         0.00000  -0.00003   0.00114   0.00006   0.00001
0 Ni 3py        -0.00000   0.00008  -0.00284   0.00001   0.00044
0 Ni 3pz        -0.00000   0.00014  -0.00543   0.00001  -0.00023
0 Ni 4px        -0.00032   0.00474   0.00327  -0.21096  -0.00192
0 Ni 4py         0.00103   0.01108  -0.00739  -0.01360  -0.19172
0 Ni 4pz        -0.00389   0.00613  -0.00698  -0.03139   0.08852
0 Ni 5px         0.00015  -0.00358  -0.00999   0.09195   0.00100
0 Ni 5py        -0.00051  -0.00398   0.02440   0.00607   0.08143
0 Ni 5pz         0.00231   0.00091   0.04240   0.01348  -0.03734
0 Ni 6px         0.00000  -0.00243  -0.02843   0.05006   0.00129
0 Ni 6py        -0.00002   0.00379   0.06992   0.00413   0.04065
0 Ni 6pz         0.00066   0.00854   0.12769   0.00785  -0.02017
0 Ni 7px        -0.00003   0.00007  -0.02456  -0.04911  -0.00024
0 Ni 7py         0.00012   0.00498   0.06092  -0.00301  -0.04522
0 Ni 7pz        -0.00101   0.00600   0.11513  -0.00780   0.02181
0 Ni 3dxx        0.00082  -0.01558   0.06913  -0.00855  -0.00018
0 Ni 3dxy        0.01833  -0.00081   0.03754   0.01457  -0.00659
0 Ni 3dxz       -0.00941  -0.00475   0.07035   0.02771   0.00419
0 Ni 3dyy        0.00124   0.01087   0.02072   0.00160   0.02447
0 Ni 3dyz        0.00310  -0.00684  -0.18085   0.00472   0.02401
0 Ni 3dzz       -0.00231   0.00371  -0.15859   0.00694  -0.02426
0 Ni 4dxx        0.02671  -0.38547  -0.16192  -0.14149  -0.00309
0 Ni 4dxy        0.49283  -0.01398  -0.06565   0.24115  -0.08694
0 Ni 4dxz       -0.24948  -0.11521  -0.12439   0.45803   0.05296
0 Ni 4dyy        0.03556   0.30681  -0.07801   0.02590   0.31961
0 Ni 4dyz        0.07627  -0.23109   0.32142   0.07612   0.31481
0 Ni 4dzz       -0.06224   0.07693   0.24262   0.11530  -0.31591
0 Ni 5dxx       -0.02700   0.38621   0.16495   0.12424   0.00214
0 Ni 5dxy        0.48521  -0.01337  -0.06130   0.20781  -0.07481
0 Ni 5dxz       -0.24555  -0.11226  -0.11605   0.39453   0.04582
0 Ni 5dyy       -0.03591  -0.30702   0.08785  -0.02248  -0.28008
0 Ni 5dyz        0.07489  -0.22727   0.30208   0.06591   0.27031
0 Ni 5dzz        0.06282  -0.07539  -0.22004  -0.10134   0.27709
0 Ni 6dxx        0.02303  -0.32502  -0.16388  -0.10649  -0.00260
0 Ni 6dxy        0.41309  -0.01113  -0.05426   0.18179  -0.06514
0 Ni 6dxz       -0.20906  -0.09455  -0.10214   0.34537   0.04001
0 Ni 6dyy        0.03062   0.25508  -0.09720   0.01974   0.23938
0 Ni 6dyz        0.06377  -0.19239   0.26594   0.05766   0.23601
0 Ni 6dzz       -0.05263   0.06051   0.16875   0.08723  -0.23791
0 Ni 4fxxx       0.00019  -0.00223  -0.00422  -0.02459  -0.00039
0 Ni 4fxxy       0.00035   0.00117   0.00304   0.00401  -0.00353
0 Ni 4fxxz      -0.00040   0.00340   0.00671   0.00776   0.00173
0 Ni 4fxyy      -0.00146  -0.00043   0.00049  -0.01000   0.00399
0 Ni 4fxyz      -0.00156   0.00029   0.00550  -0.01495   0.00423
0 Ni 4fxzz       0.00144   0.00008   0.00595  -0.02331  -0.00440
0 Ni 4fyyy      -0.00052  -0.00021   0.00853  -0.00231  -0.02675
0 Ni 4fyyz      -0.00031   0.00055  -0.00128  -0.00305  -0.01605
0 Ni 4fyzz      -0.00032   0.00048  -0.01479  -0.00537  -0.01127
0 Ni 4fzzz       0.00074   0.00281   0.00265  -0.00911   0.02430
0 Ni 5fxxx      -0.00027   0.00300  -0.00965  -0.09337  -0.00044
0 Ni 5fxxy      -0.00009   0.00302   0.01854  -0.00675  -0.05181
0 Ni 5fxxz      -0.00066   0.00085   0.03570  -0.01472   0.02342
0 Ni 5fxyy       0.00128   0.00107  -0.00906  -0.05136  -0.00349
0 Ni 5fxyz      -0.00145   0.00027   0.00534  -0.01221   0.00346
0 Ni 5fxzz       0.00141  -0.00060   0.01430   0.04100  -0.00308
0 Ni 5fyyy       0.00082   0.00767   0.02621  -0.00516  -0.08248
0 Ni 5fyyz      -0.00075   0.00352   0.04340  -0.00629   0.03741
0 Ni 5fyzz      -0.00053  -0.00370  -0.03565  -0.00057   0.04583
0 Ni 5fzzz      -0.00254   0.00525   0.06554  -0.00946   0.02816
0 Ni 5gxxxx     -0.01285   0.18385   0.10655   0.07925   0.00188
0 Ni 5gxxxy     -0.16598   0.00449   0.02859  -0.09488   0.03393
0 Ni 5gxxxz      0.08403   0.03804   0.05365  -0.18041  -0.02059
0 Ni 5gxxyy     -0.01046   0.01446   0.05325   0.02128  -0.05840
0 Ni 5gxxyz     -0.01312   0.03991  -0.06773  -0.01511  -0.06066
0 Ni 5gxxzz      0.00577   0.05307  -0.01119   0.00436   0.05852
0 Ni 5gxyyy     -0.16613   0.00464   0.02869  -0.09480   0.03375
0 Ni 5gxyyz      0.04294   0.01974   0.02658  -0.08818  -0.01044
0 Ni 5gxyzz     -0.08559   0.00246   0.01471  -0.04566   0.01659
0 Ni 5gxzzz      0.08428   0.03847   0.05453  -0.17935  -0.02015
0 Ni 5gyyyy     -0.01715  -0.14224   0.05393  -0.01456  -0.17755
0 Ni 5gyyyz     -0.02574   0.07684  -0.13852  -0.02965  -0.12277
0 Ni 5gyyzz      0.00432  -0.06227  -0.02949  -0.02574   0.00002
0 Ni 5gyzzz     -0.02569   0.07707  -0.14027  -0.02926  -0.12349
0 Ni 5gzzzz      0.02961  -0.03364  -0.14251  -0.06339   0.17316
1  O 1s          0.00000  -0.00001  -0.00015  -0.00000  -0.00000
1  O 2s         -0.00006   0.00347  -0.07861  -0.00005   0.00013
1  O 3s          0.00149  -0.00789   0.17234  -0.00348   0.00688
1  O 4s         -0.00017   0.00675  -0.04016   0.00061  -0.00117
1  O 5s         -0.00044  -0.01228   0.01173   0.00100  -0.00195
1  O 6s          0.00068   0.00739   0.03100  -0.00186   0.00362
1  O 2px        -0.00002   0.00009   0.02317  -0.01646  -0.00065
1  O 2py         0.00005  -0.00012  -0.05791  -0.00135  -0.02921
1  O 2pz         0.00006  -0.00028  -0.11207  -0.00279   0.01524
1  O 3px        -0.00108   0.01111   0.03579  -0.10164  -0.00378
1  O 3py         0.00315   0.01108  -0.08641  -0.00957  -0.07681
1  O 3pz        -0.00411  -0.00396  -0.14322  -0.01583   0.03871
1  O 4px        -0.00005   0.00201   0.00288  -0.03802  -0.00042
1  O 4py         0.00016   0.00167  -0.00642  -0.00241  -0.03497
1  O 4pz        -0.00147  -0.00117  -0.00682  -0.00484   0.01451
1  O 5px         0.00027  -0.00063  -0.00159  -0.09435  -0.00057
1  O 5py        -0.00076  -0.00534   0.00345  -0.00591  -0.08910
1  O 5pz         0.00035  -0.00570   0.00228  -0.01537   0.04387
1  O 3dxx       -0.00261   0.03856  -0.05343  -0.01152   0.00221
1  O 3dxy        0.06561  -0.00168   0.00897  -0.02536   0.00997
1  O 3dxz       -0.03322  -0.01637   0.01872  -0.04785  -0.00616
1  O 3dyy       -0.00334  -0.04833  -0.03907   0.00053   0.02805
1  O 3dyz        0.01020  -0.03835  -0.04496  -0.00868  -0.03387
1  O 3dzz        0.00710  -0.01673   0.00340   0.00956  -0.02741
1  O 4dxx        0.00503  -0.08647   0.02216   0.03459  -0.00655
1  O 4dxy        0.12978  -0.00304   0.01818  -0.06713   0.02539
1  O 4dxz       -0.06565  -0.03130   0.03790  -0.12688  -0.01591
1  O 4dyy        0.00661   0.08556  -0.00717  -0.00192  -0.08057
1  O 4dyz        0.02016  -0.07476  -0.09161  -0.02260  -0.08787
1  O 4dzz       -0.01463   0.02219  -0.09618  -0.02618   0.07424
1  O 5dxx        0.00860  -0.12337   0.04596   0.05301  -0.00268
1  O 5dxy        0.18388  -0.00399   0.02667  -0.10631   0.03971
1  O 5dxz       -0.09291  -0.04294   0.05524  -0.20108  -0.02488
1  O 5dyy        0.01095   0.11638   0.00262  -0.00738  -0.12347
1  O 5dyz        0.02844  -0.10362  -0.13406  -0.03534  -0.13886
1  O 5dzz       -0.01953   0.02749  -0.13038  -0.04546   0.12581
1  O 4fxxx      -0.00014  -0.00032  -0.00713   0.00932  -0.00037
1  O 4fxxy       0.00063   0.00223   0.00658   0.00031   0.00517
1  O 4fxxz      -0.00036   0.00299   0.01468   0.00101  -0.00189
1  O 4fxyy      -0.00116   0.00035  -0.00221   0.00443   0.00006
1  O 4fxyz      -0.00144  -0.00009   0.00098  -0.00141   0.00037
1  O 4fxzz       0.00106   0.00052  -0.00062   0.00354  -0.00013
1  O 4fyyy       0.00032   0.00252   0.01774   0.00013   0.01101
1  O 4fyyz      -0.00043   0.00141   0.01273   0.00052  -0.00361
1  O 4fyzz      -0.00019   0.00322   0.00132   0.00002   0.00488
1  O 4fzzz       0.00000   0.00422   0.03124   0.00119  -0.00432
               #36       #37       #38       #39       #40      
0 Ni 1s          0.00025  -0.00033   0.00000  -0.00000   0.00001
0 Ni 2s         -0.00065   0.00138  -0.00004   0.00000  -0.00037
0 Ni 3s          0.00105  -0.00613   0.00017  -0.00000   0.00116
0 Ni 4s          0.14969  -0.05084  -0.00346   0.00003  -0.09837
0 Ni 5s          0.22555   0.04117   0.00169  -0.00074  -0.00023
0 Ni 6s         -0.25897   0.48589  -0.00541  -0.00045  -0.00348
0 Ni 2px        -0.00001   0.00005   0.00000   0.00000   0.00003
[...]
0 Ni 5s          0.00216  -0.01434   0.07090   0.00001  -0.00001
0 Ni 6s         -0.00131   0.00039  -0.00487   0.00005  -0.00003
0 Ni 2px        -0.00048  -0.00012  -0.00002  -0.00035  -0.00374
0 Ni 2py         0.00001   0.00029   0.00005  -0.00341  -0.00001
0 Ni 2pz        -0.00010   0.00055   0.00009   0.00171  -0.00078
0 Ni 3px        -0.00403  -0.00020  -0.00000   0.00025   0.00266
0 Ni 3py         0.00005   0.00050   0.00000   0.00243   0.00001
0 Ni 3pz        -0.00087   0.00096   0.00001  -0.00122   0.00055
0 Ni 4px        -0.03268   0.01021   0.01065   0.04240   0.45699
0 Ni 4py        -0.00234  -0.01334  -0.02572   0.41524   0.00118
0 Ni 4pz         0.01672   0.04859  -0.04426  -0.20777   0.09499
0 Ni 5px        -0.01818   0.01082  -0.00438   0.01670   0.18019
0 Ni 5py         0.00078  -0.02158   0.01128   0.16419   0.00044
0 Ni 5pz         0.00887  -0.00939   0.02394  -0.08261   0.03775
0 Ni 6px        -0.00630  -0.00737   0.00078   0.00519   0.05587
0 Ni 6py        -0.00081   0.02292  -0.00186   0.05082   0.00016
0 Ni 6pz         0.00859   0.07234  -0.00286  -0.02556   0.01170
0 Ni 7px         0.01432   0.00623   0.01223   0.02654   0.28602
0 Ni 7py        -0.00059  -0.01928  -0.03063   0.25990   0.00075
0 Ni 7pz        -0.00705  -0.05857  -0.05949  -0.13020   0.05955
0 Ni 3dxx       -0.00010   0.00005  -0.00033   0.00000  -0.00000
0 Ni 3dxy        0.00018   0.00000  -0.00014   0.00000  -0.00000
0 Ni 3dxz        0.00034   0.00000  -0.00027  -0.00000  -0.00000
0 Ni 3dyy       -0.00000   0.00007  -0.00012  -0.00001   0.00000
0 Ni 3dyz        0.00004  -0.00001   0.00066  -0.00001   0.00000
0 Ni 3dzz        0.00011   0.00006   0.00052   0.00001  -0.00000
0 Ni 4dxx        0.00352   0.02996  -0.00247   0.00052   0.00229
0 Ni 4dxy       -0.01009   0.01095  -0.00187   0.00090  -0.00354
0 Ni 4dxz       -0.01979   0.02101  -0.00346  -0.00112  -0.00655
0 Ni 4dyy       -0.00176   0.01164   0.00101  -0.00503  -0.00019
0 Ni 4dyz        0.00150  -0.05194   0.00852  -0.00459  -0.00057
0 Ni 4dzz       -0.00191  -0.04261   0.01161   0.00452  -0.00211
0 Ni 5dxx       -0.00467  -0.01479   0.01010  -0.00037  -0.00220
0 Ni 5dxy       -0.00975   0.00621  -0.00535   0.00090  -0.00358
0 Ni 5dxz       -0.01403   0.00493  -0.01114  -0.00122  -0.00662
0 Ni 5dyy        0.00185  -0.00424   0.00111   0.00477   0.00013
0 Ni 5dyz        0.00173  -0.00655   0.02847  -0.00453  -0.00069
0 Ni 5dzz        0.00038  -0.00158  -0.03103  -0.00439   0.00205
0 Ni 6dxx       -0.00617  -0.00344  -0.01419  -0.00003  -0.00052
0 Ni 6dxy        0.00834  -0.01910  -0.00606  -0.00034   0.00105
0 Ni 6dxz        0.01291  -0.03358  -0.01112   0.00039   0.00190
0 Ni 6dyy       -0.00089   0.02736  -0.00421   0.00133  -0.00003
0 Ni 6dyz        0.00013   0.08133   0.02732   0.00146   0.00022
0 Ni 6dzz        0.00251   0.11500   0.02547  -0.00136   0.00059
0 Ni 4fxxx      -0.09650   0.04603   0.00260  -0.03750  -0.40428
0 Ni 4fxxy      -0.06801  -0.06241  -0.00269  -0.17109  -0.00044
0 Ni 4fxxz      -0.15784  -0.15105  -0.00512   0.08578  -0.03914
0 Ni 4fxyy       0.01521  -0.00275   0.00208  -0.01740  -0.18823
0 Ni 4fxyz       0.22206  -0.08388   0.00279   0.00006  -0.00010
0 Ni 4fxzz       0.21408  -0.08401   0.00527  -0.01745  -0.18839
0 Ni 4fyyy       0.00008  -0.08831  -0.00812  -0.36768  -0.00103
0 Ni 4fyyz      -0.01343  -0.02865  -0.00991   0.08552  -0.03919
0 Ni 4fyzz       0.06960   0.20371  -0.01313  -0.17131  -0.00043
0 Ni 4fzzz       0.06382  -0.01075  -0.02545   0.18433  -0.08426
0 Ni 5fxxx      -0.26277   0.12703   0.01487  -0.04942  -0.53330
0 Ni 5fxxy      -0.16577  -0.16466  -0.01709  -0.21544  -0.00073
0 Ni 5fxxz      -0.35999  -0.33213  -0.03299   0.10805  -0.04971
0 Ni 5fxyy       0.01877  -0.01093   0.00352  -0.02206  -0.23648
0 Ni 5fxyz      -0.53727   0.24196   0.01010   0.00012  -0.00043
0 Ni 5fxzz      -0.50166   0.25093   0.00698   0.02179   0.23602
0 Ni 5fyyy      -0.00176  -0.21268  -0.03218  -0.48494  -0.00130
0 Ni 5fyyz      -0.01150   0.02911  -0.01718   0.10867  -0.04939
0 Ni 5fyzz      -0.16339  -0.62121  -0.01729   0.21498   0.00051
0 Ni 5fzzz       0.19161   0.21861  -0.03213   0.24301  -0.11108
0 Ni 5gxxxx     -0.01562  -0.05000   0.00240   0.00016   0.00188
0 Ni 5gxxxy      0.01710  -0.03856  -0.00424   0.00063  -0.00231
0 Ni 5gxxxz      0.03534  -0.08054  -0.00911  -0.00083  -0.00424
0 Ni 5gxxyy      0.00649  -0.01142   0.00378  -0.00117   0.00052
0 Ni 5gxxyz      0.04230   0.10042   0.01105  -0.00131  -0.00028
0 Ni 5gxxzz      0.05319   0.08657   0.01492   0.00120  -0.00008
0 Ni 5gxyyy      0.00933  -0.02312  -0.00209   0.00061  -0.00230
0 Ni 5gxyyz     -0.01761   0.01154   0.00272  -0.00040  -0.00180
0 Ni 5gxyzz     -0.07045   0.09195   0.01327   0.00028  -0.00089
0 Ni 5gxzzz     -0.04068   0.04251   0.00801  -0.00076  -0.00413
0 Ni 5gyyyy     -0.00034   0.01187   0.00894  -0.00424   0.00000
0 Ni 5gyyyz      0.00449   0.13225   0.01325  -0.00289  -0.00049
0 Ni 5gyyzz     -0.00354  -0.05105  -0.00505   0.00008  -0.00050
0 Ni 5gyzzz     -0.02668  -0.10047  -0.01914  -0.00300  -0.00042
0 Ni 5gzzzz     -0.01937   0.03173   0.00546   0.00392  -0.00179
1  O 1s         -0.00000   0.00006  -0.00070   0.00000   0.00000
1  O 2s         -0.00000   0.00015  -0.00078  -0.00000   0.00000
1  O 3s          0.00645  -0.02718  -0.29602  -0.00006   0.00004
1  O 4s         -0.00083  -0.04634   0.36335  -0.00018   0.00011
1  O 5s         -0.00004  -0.02641   0.49983   0.00017  -0.00011
1  O 6s          0.00065  -0.02267   0.61791  -0.00004   0.00003
1  O 2px         0.00003  -0.00003  -0.00001  -0.00001  -0.00007
1  O 2py         0.00000   0.00007   0.00003  -0.00007  -0.00000
1  O 2pz         0.00000   0.00013   0.00005   0.00003  -0.00002
1  O 3px         0.01795   0.00764  -0.00800   0.00034   0.00317
1  O 3py         0.00534  -0.02250   0.01999   0.00230   0.00008
1  O 3pz         0.00886  -0.06310   0.03837  -0.00076   0.00039
1  O 4px        -0.01866  -0.01312  -0.00157  -0.00227  -0.02388
1  O 4py        -0.00097   0.03383   0.00415  -0.02171  -0.00015
1  O 4pz        -0.00995   0.06983   0.00920   0.01137  -0.00524
1  O 5px        -0.00150   0.00614   0.00659  -0.00220  -0.02361
1  O 5py        -0.00108  -0.01573  -0.01652  -0.02138  -0.00008
1  O 5pz        -0.00085  -0.03340  -0.03215   0.01071  -0.00491
1  O 3dxx       -0.00900   0.03437  -0.03758  -0.00006  -0.00047
1  O 3dxy       -0.01176  -0.00834   0.00031   0.00004  -0.00046
1  O 3dxz       -0.02299  -0.01770   0.00057  -0.00019  -0.00087
1  O 3dyy        0.00121   0.01836  -0.03662   0.00080   0.00007
1  O 3dyz       -0.00609   0.04649  -0.00100  -0.00038  -0.00016
1  O 3dzz        0.01075  -0.04488  -0.03551  -0.00078   0.00042
1  O 4dxx        0.00782  -0.00911  -0.18006   0.00040   0.00223
1  O 4dxy       -0.01762  -0.00567   0.00156   0.00085  -0.00341
1  O 4dxz       -0.03397  -0.01324   0.00288  -0.00120  -0.00630
1  O 4dyy       -0.00515   0.00155  -0.18156  -0.00484  -0.00017
1  O 4dyz       -0.00584   0.03569  -0.00792  -0.00426  -0.00071
1  O 4dzz       -0.01505   0.05284  -0.19020   0.00469  -0.00222
1  O 5dxx       -0.00896   0.00882  -0.06021   0.00066   0.00507
1  O 5dxy        0.01209   0.00732   0.00245   0.00210  -0.00781
1  O 5dxz        0.02127   0.01185   0.00481  -0.00270  -0.01433
1  O 5dyy       -0.00246  -0.00267  -0.06523  -0.01141  -0.00013
1  O 5dyz        0.00314  -0.02849  -0.01152  -0.01009  -0.00153
1  O 5dzz        0.00994  -0.02536  -0.07880   0.01070  -0.00490
1  O 4fxxx      -0.03344  -0.01840  -0.00698  -0.00045  -0.00484
1  O 4fxxy      -0.01058   0.02141   0.00767  -0.00159  -0.00004
1  O 4fxxz      -0.02580   0.04753   0.01551   0.00082  -0.00045
1  O 4fxyy      -0.00511   0.00058  -0.00221  -0.00017  -0.00171
1  O 4fxyz       0.03323   0.02654   0.00226   0.00003   0.00002
1  O 4fxzz       0.02732   0.02932   0.00043  -0.00011  -0.00162
1  O 4fyyy       0.00088   0.03431   0.01630  -0.00435  -0.00001
1  O 4fyyz      -0.00158   0.00481   0.01156   0.00088  -0.00035
1  O 4fyzz       0.01286  -0.07331  -0.00102  -0.00162   0.00006
1  O 4fzzz       0.01091  -0.00996   0.02423   0.00208  -0.00093
               #126      #127      #128      #129     
0 Ni 1s          0.00007  -0.00798   0.00004  -0.00478
0 Ni 2s          0.00002   0.01305  -0.00005   0.00092
0 Ni 3s         -0.00005  -0.00713  -0.00000   0.00062
0 Ni 4s          0.00003   0.02196  -0.00191   0.00744
0 Ni 5s         -0.02443   0.18283  -0.07405   0.25182
0 Ni 6s          0.02120   0.02713  -0.03132   0.13580
0 Ni 2px         0.00073   0.00000   0.00000   0.00000
0 Ni 2py        -0.00181  -0.00000  -0.00000  -0.00001
0 Ni 2pz        -0.00346  -0.00001  -0.00000  -0.00002
0 Ni 3px        -0.00056  -0.00000   0.00001  -0.00000
0 Ni 3py         0.00140   0.00000  -0.00003   0.00001
0 Ni 3pz         0.00268   0.00000  -0.00005   0.00002
0 Ni 4px        -0.07833   0.00001   0.00802   0.00081
0 Ni 4py         0.19477   0.00050  -0.02017  -0.00178
0 Ni 4pz         0.37017   0.00394  -0.03958  -0.00203
0 Ni 5px        -0.02368  -0.00481  -0.01209   0.00170
0 Ni 5py         0.05913   0.01189   0.03015  -0.00424
0 Ni 5pz         0.11354   0.02245   0.05783  -0.00800
0 Ni 6px        -0.00772  -0.00399  -0.01227  -0.00159
0 Ni 6py         0.01924   0.01002   0.03062   0.00399
0 Ni 6pz         0.03669   0.01976   0.05879   0.00781
0 Ni 7px        -0.05693   0.00050  -0.00498   0.00023
0 Ni 7py         0.14177  -0.00113   0.01241  -0.00055
0 Ni 7pz         0.27065  -0.00160   0.02376  -0.00096
0 Ni 3dxx        0.00009  -0.03641   0.00048  -0.01388
0 Ni 3dxy       -0.00001   0.00005   0.00016   0.00003
0 Ni 3dxz       -0.00003   0.00010   0.00030   0.00006
0 Ni 3dyy        0.00011  -0.03650   0.00025  -0.01393
0 Ni 3dyz        0.00007  -0.00025  -0.00074  -0.00014
0 Ni 3dzz        0.00018  -0.03678  -0.00048  -0.01408
0 Ni 4dxx        0.02532   0.34048  -0.01248  -0.40686
0 Ni 4dxy        0.00049   0.00099   0.00056   0.00036
0 Ni 4dxz        0.00051   0.00241   0.00104   0.00082
0 Ni 4dyy        0.02444   0.33907  -0.01329  -0.40748
0 Ni 4dyz       -0.00088  -0.00645  -0.00255  -0.00216
0 Ni 4dzz        0.02478   0.33108  -0.01556  -0.41036
0 Ni 5dxx       -0.01789   0.45586   0.00607   0.26530
0 Ni 5dxy        0.00458  -0.00270   0.00084  -0.00009
0 Ni 5dxz        0.00845  -0.00484   0.00158  -0.00013
0 Ni 5dyy       -0.01000   0.45145   0.00719   0.26510
0 Ni 5dyz       -0.02079   0.01178  -0.00393   0.00027
0 Ni 5dzz        0.01284   0.43977   0.01050   0.26489
0 Ni 6dxx       -0.00299  -0.04529   0.02523  -0.05802
0 Ni 6dxy        0.00045  -0.00136   0.00186  -0.00140
0 Ni 6dxz        0.00084  -0.00252   0.00350  -0.00261
0 Ni 6dyy       -0.00382  -0.04289   0.02245  -0.05559
0 Ni 6dyz       -0.00208   0.00621  -0.00867   0.00644
0 Ni 6dzz       -0.00621  -0.03587   0.01402  -0.04827
0 Ni 4fxxx       0.08572  -0.00278  -0.00465   0.00775
0 Ni 4fxxy      -0.09882   0.00281   0.00486  -0.00873
0 Ni 4fxxz      -0.18959   0.00552   0.00933  -0.01660
0 Ni 4fxyy       0.03890  -0.00064  -0.00230   0.00379
0 Ni 4fxyz      -0.00219   0.00148  -0.00122   0.00077
0 Ni 4fxzz       0.03642   0.00107  -0.00340   0.00471
0 Ni 4fyyy      -0.21266   0.00620   0.01202  -0.01979
0 Ni 4fyyz      -0.18600   0.00307   0.01100  -0.01797
0 Ni 4fyzz      -0.09075  -0.00274   0.00846  -0.01174
0 Ni 4fzzz      -0.40014   0.00679   0.02555  -0.04081
0 Ni 5fxxx       0.09552  -0.00092   0.00134   0.00106
0 Ni 5fxxy      -0.10631   0.00177  -0.00076  -0.00090
0 Ni 5fxxz      -0.20405   0.00412  -0.00175  -0.00165
0 Ni 5fxyy       0.04254  -0.00107   0.00064  -0.00003
0 Ni 5fxyz       0.00040   0.00125  -0.00119   0.00110
0 Ni 5fxzz      -0.04249   0.00258  -0.00174   0.00131
0 Ni 5fyyy      -0.23827   0.00320  -0.00387  -0.00192
0 Ni 5fyyz      -0.20384   0.00625  -0.00343   0.00027
0 Ni 5fyzz       0.10611  -0.00663   0.00439  -0.00330
0 Ni 5fzzz      -0.45789   0.01218  -0.01052   0.00068
0 Ni 5gxxxx      0.00337  -0.00826  -0.01725  -0.20950
0 Ni 5gxxxy      0.00239  -0.00177  -0.00096   0.00088
0 Ni 5gxxxz      0.00456  -0.00345  -0.00181   0.00161
0 Ni 5gxxyy      0.00003   0.01227  -0.00957  -0.12983
0 Ni 5gxxyz     -0.00462   0.00369   0.00210  -0.00172
0 Ni 5gxxzz     -0.00571   0.01594  -0.00747  -0.13180
0 Ni 5gxyyy      0.00249  -0.00171  -0.00097   0.00098
0 Ni 5gxyyz      0.00222  -0.00128  -0.00088   0.00100
0 Ni 5gxyzz      0.00175  -0.00033  -0.00052   0.00103
0 Ni 5gxzzz      0.00531  -0.00290  -0.00184   0.00241
0 Ni 5gyyyy     -0.00351  -0.00434  -0.01505  -0.21201
0 Ni 5gyyyz     -0.01184   0.00832   0.00450  -0.00443
0 Ni 5gyyzz     -0.00854   0.01633  -0.00673  -0.13352
0 Ni 5gyzzz     -0.01321   0.00725   0.00455  -0.00594
0 Ni 5gzzzz     -0.02635   0.00733  -0.00840  -0.22090
1  O 1s         -0.00001   0.00000   0.00084   0.00000
1  O 2s          0.00020  -0.00056   0.00023  -0.00038
1  O 3s         -0.00547   0.00528  -0.22086  -0.00778
1  O 4s          0.00272  -0.01742  -0.42495   0.00176
1  O 5s          0.01064   0.02783   0.21460  -0.00322
1  O 6s         -0.02088  -0.02103  -0.25961  -0.00146
1  O 2px        -0.00005   0.00072   0.00004   0.00031
1  O 2py         0.00014  -0.00179  -0.00009  -0.00077
1  O 2pz         0.00026  -0.00342  -0.00018  -0.00148
1  O 3px         0.00527   0.00577  -0.01838   0.00729
1  O 3py        -0.01349  -0.01410   0.04559  -0.01808
1  O 3pz        -0.02753  -0.02576   0.08609  -0.03429
1  O 4px         0.00724  -0.00399  -0.00803  -0.00286
1  O 4py        -0.01836   0.01025   0.01995   0.00728
1  O 4pz        -0.03694   0.02143   0.03784   0.01480
1  O 5px         0.00577  -0.00374  -0.00753   0.00140
1  O 5py        -0.01418   0.00914   0.01879  -0.00356
1  O 5pz        -0.02608   0.01650   0.03602  -0.00719
1  O 3dxx       -0.02732   0.01300  -0.30729   0.00520
1  O 3dxy        0.00450  -0.00596   0.00012  -0.00296
1  O 3dxz        0.00845  -0.01131   0.00019  -0.00566
1  O 3dyy       -0.02005   0.00369  -0.30698   0.00025
1  O 3dyz       -0.02089   0.02806  -0.00045   0.01411
1  O 3dzz        0.00175  -0.02512  -0.30628  -0.01548
1  O 4dxx        0.02204  -0.01603  -0.27062   0.00011
1  O 4dxy        0.00536  -0.00584   0.00093  -0.00276
1  O 4dxz        0.01001  -0.01102   0.00167  -0.00526
1  O 4dyy        0.01339  -0.00716  -0.27247   0.00464
1  O 4dyz       -0.02471   0.02728  -0.00409   0.01308
1  O 4dzz       -0.01227   0.01981  -0.27762   0.01878
1  O 5dxx        0.00478  -0.01049   0.19839  -0.00007
1  O 5dxy        0.00046  -0.00268   0.00169  -0.00127
1  O 5dxz        0.00065  -0.00498   0.00310  -0.00234
1  O 5dyy        0.00413  -0.00695   0.19496   0.00187
1  O 5dyz       -0.00139   0.01224  -0.00760   0.00576
1  O 5dzz        0.00382   0.00308   0.18504   0.00738
1  O 4fxxx      -0.00426  -0.00043   0.00771  -0.00763
1  O 4fxxy       0.00503   0.00008  -0.00848   0.00822
1  O 4fxxz       0.00849   0.00130  -0.01625   0.01627
1  O 4fxyy      -0.00315   0.00133   0.00339  -0.00262
1  O 4fxyz      -0.00276   0.00366  -0.00007   0.00187
1  O 4fxzz      -0.00644   0.00540   0.00335  -0.00051
1  O 4fyyy       0.01205  -0.00062  -0.01924   0.01813
1  O 4fyyz       0.01346  -0.00482  -0.01619   0.01315
1  O 4fyzz       0.01582  -0.01326  -0.00834   0.00134
1  O 4fzzz       0.03153  -0.01155  -0.03686   0.02908
 ** Mulliken pop on meta-lowdin orthogonal AOs  **
 ** Mulliken pop  **
pop of  0 Ni 1s           1.99981
pop of  0 Ni 2s           1.99948
pop of  0 Ni 3s           1.99922
pop of  0 Ni 4s           0.61469
pop of  0 Ni 5s           0.00342
pop of  0 Ni 6s           0.00134
pop of  0 Ni 2px          1.99995
pop of  0 Ni 2py          1.99995
pop of  0 Ni 2pz          1.99995
pop of  0 Ni 3px          1.99963
pop of  0 Ni 3py          1.99961
pop of  0 Ni 3pz          1.99952
pop of  0 Ni 4px          0.00144
pop of  0 Ni 4py          0.00675
pop of  0 Ni 4pz          0.00530
pop of  0 Ni 5px          0.00014
pop of  0 Ni 5py          0.00059
pop of  0 Ni 5pz          0.00114
pop of  0 Ni 6px          0.00015
pop of  0 Ni 6py          0.00015
pop of  0 Ni 6pz          0.00032
pop of  0 Ni 7px          0.00005
pop of  0 Ni 7py          0.00012
pop of  0 Ni 7pz          0.00014
pop of  0 Ni 3dxx         1.24319
pop of  0 Ni 3dxy         1.96545
pop of  0 Ni 3dxz         1.88222
pop of  0 Ni 3dyy         1.34262
pop of  0 Ni 3dyz         1.29235
pop of  0 Ni 3dzz         0.93325
pop of  0 Ni 4dxx         0.00051
pop of  0 Ni 4dxy         0.00061
pop of  0 Ni 4dxz         0.00116
pop of  0 Ni 4dyy         0.00112
pop of  0 Ni 4dyz         0.00158
pop of  0 Ni 4dzz         0.00117
pop of  0 Ni 5dxx         0.00068
pop of  0 Ni 5dxy         0.00041
pop of  0 Ni 5dxz         0.00062
pop of  0 Ni 5dyy         0.00070
pop of  0 Ni 5dyz         0.00077
pop of  0 Ni 5dzz         0.00074
pop of  0 Ni 6dxx         0.00020
pop of  0 Ni 6dxy         0.00013
pop of  0 Ni 6dxz         0.00019
pop of  0 Ni 6dyy         0.00027
pop of  0 Ni 6dyz         0.00017
pop of  0 Ni 6dzz         0.00048
pop of  0 Ni 4fxxx        0.00011
pop of  0 Ni 4fxxy        0.00017
pop of  0 Ni 4fxxz        0.00018
pop of  0 Ni 4fxyy        0.00010
pop of  0 Ni 4fxyz        0.00013
pop of  0 Ni 4fxzz        0.00033
pop of  0 Ni 4fyyy        0.00053
pop of  0 Ni 4fyyz        0.00026
pop of  0 Ni 4fyzz        0.00061
pop of  0 Ni 4fzzz        0.00075
pop of  0 Ni 5fxxx        0.00089
pop of  0 Ni 5fxxy        0.00158
pop of  0 Ni 5fxxz        0.00123
pop of  0 Ni 5fxyy        0.00045
pop of  0 Ni 5fxyz        0.00002
pop of  0 Ni 5fxzz        0.00056
pop of  0 Ni 5fyyy        0.00365
pop of  0 Ni 5fyyz        0.00108
pop of  0 Ni 5fyzz        0.00182
pop of  0 Ni 5fzzz        0.00300
pop of  0 Ni 5gxxxx       0.00005
pop of  0 Ni 5gxxxy       0.00002
pop of  0 Ni 5gxxxz       0.00002
pop of  0 Ni 5gxxyy       0.00002
pop of  0 Ni 5gxxyz       0.00001
pop of  0 Ni 5gxxzz       0.00003
pop of  0 Ni 5gxyyy       0.00004
pop of  0 Ni 5gxyyz       0.00002
pop of  0 Ni 5gxyzz       0.00003
pop of  0 Ni 5gxzzz       0.00007
pop of  0 Ni 5gyyyy       0.00005
pop of  0 Ni 5gyyyz       0.00003
pop of  0 Ni 5gyyzz       0.00004
pop of  0 Ni 5gyzzz       0.00006
pop of  0 Ni 5gzzzz       0.00008
pop of  1  O 1s           1.99999
pop of  1  O 2s           1.90472
pop of  1  O 3s           0.00289
pop of  1  O 4s           0.00049
pop of  1  O 5s           0.00020
pop of  1  O 6s           0.00005
pop of  1  O 2px          1.03400
pop of  1  O 2py          1.92374
pop of  1  O 2pz          1.77554
pop of  1  O 3px          0.00250
pop of  1  O 3py          0.01101
pop of  1  O 3pz          0.00382
pop of  1  O 4px          0.00025
pop of  1  O 4py          0.00043
pop of  1  O 4pz          0.00129
pop of  1  O 5px          0.00010
pop of  1  O 5py          0.00025
pop of  1  O 5pz          0.00021
pop of  1  O 3dxx         0.00067
pop of  1  O 3dxy         0.00039
pop of  1  O 3dxz         0.00121
pop of  1  O 3dyy         0.00091
pop of  1  O 3dyz         0.00265
pop of  1  O 3dzz         0.00195
pop of  1  O 4dxx         0.00158
pop of  1  O 4dxy         0.00016
pop of  1  O 4dxz         0.00038
pop of  1  O 4dyy         0.00198
pop of  1  O 4dyz         0.00045
pop of  1  O 4dzz         0.00145
pop of  1  O 5dxx         0.00040
pop of  1  O 5dxy         0.00012
pop of  1  O 5dxz         0.00021
pop of  1  O 5dyy         0.00039
pop of  1  O 5dyz         0.00048
pop of  1  O 5dzz         0.00024
pop of  1  O 4fxxx        0.00018
pop of  1  O 4fxxy        0.00018
pop of  1  O 4fxxz        0.00009
pop of  1  O 4fxyy        0.00001
pop of  1  O 4fxyz        0.00002
pop of  1  O 4fxzz        0.00003
pop of  1  O 4fyyy        0.00030
pop of  1  O 4fyyz        0.00007
pop of  1  O 4fyzz        0.00026
pop of  1  O 4fzzz        0.00027
 ** Mulliken atomic charges  **
charge of    0Ni =      0.67856
charge of    1O =     -0.67856
Dipole moment(X, Y, Z, Debye):  0.78339, -1.95223, -3.73464
<class 'pyscf.scf.rohf.ROHF'> wavefunction has an internal instability.
