
Host: jacopo-Zenbook-UX562UG-Q508UG

Timers On : Fri Mar 15 19:26:00 2024
Timers Off: Fri Mar 15 19:26:05 2024

Wall Time:        4.48 seconds

                                                       Time (seconds)
Module                                       User      System        Wall        Calls

--------------------------------------------------------------------------------------

**************************************************************************************

Host: jacopo-Zenbook-UX562UG-Q508UG

Timers On : Fri Mar 15 19:48:46 2024
Timers Off: Fri Mar 15 19:48:49 2024

Wall Time:        3.55 seconds

                                                       Time (seconds)
Module                                       User      System        Wall        Calls

--------------------------------------------------------------------------------------

**************************************************************************************

Host: jacopo-Zenbook-UX562UG-Q508UG

Timers On : Fri Mar 15 20:30:47 2024
Timers Off: Fri Mar 15 20:30:50 2024

Wall Time:        3.59 seconds

                                                       Time (seconds)
Module                                       User      System        Wall        Calls

--------------------------------------------------------------------------------------

**************************************************************************************

Host: jacopo-Zenbook-UX562UG-Q508UG

Timers On : Fri Mar 15 20:31:31 2024
Timers Off: Fri Mar 15 20:31:34 2024

Wall Time:        3.50 seconds

                                                       Time (seconds)
Module                                       User      System        Wall        Calls

--------------------------------------------------------------------------------------

**************************************************************************************

Host: jacopo-XPS-8950

Timers On : Sat Mar 16 02:55:04 2024
Timers Off: Sat Mar 16 02:55:04 2024

Wall Time:        0.19 seconds

                                                       Time (seconds)
Module                                       User      System        Wall        Calls

--------------------------------------------------------------------------------------

**************************************************************************************

Host: jacopo-XPS-8950

Timers On : Sat Mar 16 03:42:39 2024
Timers Off: Sat Mar 16 03:42:39 2024

Wall Time:        0.21 seconds

                                                       Time (seconds)
Module                                       User      System        Wall        Calls

--------------------------------------------------------------------------------------

**************************************************************************************

Host: jacopo-XPS-8950

Timers On : Sat Mar 16 03:43:59 2024
Timers Off: Sat Mar 16 03:43:59 2024

Wall Time:        0.79 seconds

                                                       Time (seconds)
Module                                       User      System        Wall        Calls

--------------------------------------------------------------------------------------

**************************************************************************************

Host: jacopo-XPS-8950

Timers On : Sat Mar 16 03:55:26 2024
Timers Off: Sat Mar 16 03:55:27 2024

Wall Time:        0.79 seconds

                                                       Time (seconds)
Module                                       User      System        Wall        Calls

--------------------------------------------------------------------------------------

**************************************************************************************

Host: jacopo-XPS-8950

Timers On : Sat Mar 16 03:57:51 2024
Timers Off: Sat Mar 16 03:57:53 2024

Wall Time:        2.02 seconds

                                                       Time (seconds)
Module                                       User      System        Wall        Calls

--------------------------------------------------------------------------------------

**************************************************************************************

Host: jacopo-XPS-8950

Timers On : Sat Mar 16 04:13:38 2024
Timers Off: Sat Mar 16 04:13:38 2024

Wall Time:        0.14 seconds

                                                       Time (seconds)
Module                                       User      System        Wall        Calls

--------------------------------------------------------------------------------------

**************************************************************************************

Host: jacopo-XPS-8950

Timers On : Sat Mar 16 13:11:09 2024
Timers Off: Sat Mar 16 13:11:11 2024

Wall Time:        2.08 seconds

                                                       Time (seconds)
Module                                       User      System        Wall        Calls

--------------------------------------------------------------------------------------

**************************************************************************************

Host: jacopo-XPS-8950

Timers On : Sat Mar 16 13:12:40 2024
Timers Off: Sat Mar 16 13:12:42 2024

Wall Time:        2.06 seconds

                                                       Time (seconds)
Module                                       User      System        Wall        Calls

--------------------------------------------------------------------------------------

**************************************************************************************

Host: jacopo-Zenbook-UX562UG-Q508UG

Timers On : Sun Mar 17 19:36:30 2024
Timers Off: Sun Mar 17 19:36:32 2024

Wall Time:        2.09 seconds

                                                       Time (seconds)
Module                                       User      System        Wall        Calls

--------------------------------------------------------------------------------------

**************************************************************************************

Host: jacopo-Zenbook-UX562UG-Q508UG

Timers On : Sun Mar 17 19:38:18 2024
Timers Off: Sun Mar 17 19:38:19 2024

Wall Time:        1.19 seconds

                                                       Time (seconds)
Module                                       User      System        Wall        Calls

--------------------------------------------------------------------------------------

**************************************************************************************

Host: jacopo-Zenbook-UX562UG-Q508UG

Timers On : Sun Mar 17 19:39:18 2024
Timers Off: Sun Mar 17 19:39:19 2024

Wall Time:        1.18 seconds

                                                       Time (seconds)
Module                                       User      System        Wall        Calls

--------------------------------------------------------------------------------------

**************************************************************************************

Host: jacopo-Zenbook-UX562UG-Q508UG

Timers On : Sun Mar 17 19:39:52 2024
Timers Off: Sun Mar 17 19:39:53 2024

Wall Time:        1.21 seconds

                                                       Time (seconds)
Module                                       User      System        Wall        Calls

--------------------------------------------------------------------------------------

**************************************************************************************

Host: jacopo-Zenbook-UX562UG-Q508UG

Timers On : Sun Mar 17 19:39:58 2024
Timers Off: Sun Mar 17 19:40:01 2024

Wall Time:        3.56 seconds

                                                       Time (seconds)
Module                                       User      System        Wall        Calls

--------------------------------------------------------------------------------------

**************************************************************************************

Host: jacopo-Zenbook-UX562UG-Q508UG

Timers On : Sun Mar 17 19:40:52 2024
Timers Off: Sun Mar 17 19:40:56 2024

Wall Time:        3.54 seconds

                                                       Time (seconds)
Module                                       User      System        Wall        Calls

--------------------------------------------------------------------------------------

**************************************************************************************

Host: jacopo-Zenbook-UX562UG-Q508UG

Timers On : Sun Mar 17 19:41:40 2024
Timers Off: Sun Mar 17 19:41:44 2024

Wall Time:        3.48 seconds

                                                       Time (seconds)
Module                                       User      System        Wall        Calls

--------------------------------------------------------------------------------------

**************************************************************************************

Host: jacopo-Zenbook-UX562UG-Q508UG

Timers On : Sun Mar 17 19:42:27 2024
Timers Off: Sun Mar 17 19:42:31 2024

Wall Time:        3.53 seconds

                                                       Time (seconds)
Module                                       User      System        Wall        Calls

--------------------------------------------------------------------------------------

**************************************************************************************

Host: jacopo-Zenbook-UX562UG-Q508UG

Timers On : Sun Mar 17 19:42:50 2024
Timers Off: Sun Mar 17 19:42:53 2024

Wall Time:        3.53 seconds

                                                       Time (seconds)
Module                                       User      System        Wall        Calls

--------------------------------------------------------------------------------------

**************************************************************************************

Host: jacopo-Zenbook-UX562UG-Q508UG

Timers On : Mon Mar 18 17:07:36 2024
Timers Off: Mon Mar 18 17:07:41 2024

Wall Time:        4.60 seconds

                                                       Time (seconds)
Module                                       User      System        Wall        Calls

--------------------------------------------------------------------------------------

**************************************************************************************

Host: jacopo-Zenbook-UX562UG-Q508UG

Timers On : Mon Mar 18 18:40:14 2024
Timers Off: Mon Mar 18 18:40:18 2024

Wall Time:        4.51 seconds

                                                       Time (seconds)
Module                                       User      System        Wall        Calls

--------------------------------------------------------------------------------------

**************************************************************************************

Host: jacopo-Zenbook-UX562UG-Q508UG

Timers On : Thu Mar 21 22:42:29 2024
Timers Off: Thu Mar 21 22:42:29 2024

Wall Time:        0.43 seconds

                                                       Time (seconds)
Module                                       User      System        Wall        Calls

--------------------------------------------------------------------------------------

**************************************************************************************

Host: jacopo-XPS-8950

Timers On : Fri Mar 22 03:21:05 2024
Timers Off: Fri Mar 22 03:21:07 2024

Wall Time:        2.34 seconds

                                                       Time (seconds)
Module                                       User      System        Wall        Calls

--------------------------------------------------------------------------------------

**************************************************************************************

Host: jacopo-XPS-8950

Timers On : Fri Mar 22 18:34:58 2024
Timers Off: Fri Mar 22 18:35:00 2024

Wall Time:        2.11 seconds

                                                       Time (seconds)
Module                                       User      System        Wall        Calls

--------------------------------------------------------------------------------------

**************************************************************************************

Host: jacopo-XPS-8950

Timers On : Fri Mar 22 18:38:00 2024
Timers Off: Fri Mar 22 18:38:02 2024

Wall Time:        2.08 seconds

                                                       Time (seconds)
Module                                       User      System        Wall        Calls

--------------------------------------------------------------------------------------

**************************************************************************************

Host: jacopo-XPS-8950

Timers On : Fri Mar 22 18:40:04 2024
Timers Off: Fri Mar 22 18:40:06 2024

Wall Time:        1.55 seconds

                                                       Time (seconds)
Module                                       User      System        Wall        Calls

--------------------------------------------------------------------------------------

**************************************************************************************

Host: jacopo-XPS-8950

Timers On : Fri Mar 22 18:40:59 2024
Timers Off: Fri Mar 22 18:41:01 2024

Wall Time:        1.56 seconds

                                                       Time (seconds)
Module                                       User      System        Wall        Calls

--------------------------------------------------------------------------------------

**************************************************************************************

Host: jacopo-XPS-8950

Timers On : Fri Mar 22 18:53:51 2024
Timers Off: Fri Mar 22 18:53:53 2024

Wall Time:        1.54 seconds

                                                       Time (seconds)
Module                                       User      System        Wall        Calls

--------------------------------------------------------------------------------------

**************************************************************************************

Host: jacopo-XPS-8950

Timers On : Fri Mar 22 19:06:06 2024
Timers Off: Fri Mar 22 19:06:07 2024

Wall Time:        1.55 seconds

                                                       Time (seconds)
Module                                       User      System        Wall        Calls

--------------------------------------------------------------------------------------

**************************************************************************************

Host: jacopo-XPS-8950

Timers On : Mon Mar 25 23:38:38 2024
Timers Off: Mon Mar 25 23:38:40 2024

Wall Time:        1.70 seconds

                                                       Time (seconds)
Module                                       User      System        Wall        Calls

--------------------------------------------------------------------------------------

**************************************************************************************

Host: jacopo-Zenbook-UX562UG-Q508UG

Timers On : Tue Mar 26 16:32:38 2024
Timers Off: Tue Mar 26 16:32:42 2024

Wall Time:        3.31 seconds

                                                       Time (seconds)
Module                                       User      System        Wall        Calls

--------------------------------------------------------------------------------------

**************************************************************************************

Host: jacopo-Zenbook-UX562UG-Q508UG

Timers On : Tue Mar 26 16:40:04 2024
Timers Off: Tue Mar 26 16:40:07 2024

Wall Time:        2.70 seconds

                                                       Time (seconds)
Module                                       User      System        Wall        Calls

--------------------------------------------------------------------------------------

**************************************************************************************

Host: jacopo-Zenbook-UX562UG-Q508UG

Timers On : Tue Mar 26 16:42:11 2024
Timers Off: Tue Mar 26 16:42:14 2024

Wall Time:        2.73 seconds

                                                       Time (seconds)
Module                                       User      System        Wall        Calls

--------------------------------------------------------------------------------------

**************************************************************************************

Host: jacopo-Zenbook-UX562UG-Q508UG

Timers On : Tue Mar 26 16:42:32 2024
Timers Off: Tue Mar 26 16:42:35 2024

Wall Time:        2.75 seconds

                                                       Time (seconds)
Module                                       User      System        Wall        Calls

--------------------------------------------------------------------------------------

**************************************************************************************

Host: jacopo-Zenbook-UX562UG-Q508UG

Timers On : Tue Mar 26 16:43:18 2024
Timers Off: Tue Mar 26 16:43:21 2024

Wall Time:        2.72 seconds

                                                       Time (seconds)
Module                                       User      System        Wall        Calls

--------------------------------------------------------------------------------------

**************************************************************************************

Host: jacopo-Zenbook-UX562UG-Q508UG

Timers On : Tue Mar 26 17:46:17 2024
Timers Off: Tue Mar 26 17:46:20 2024

Wall Time:        2.80 seconds

                                                       Time (seconds)
Module                                       User      System        Wall        Calls

--------------------------------------------------------------------------------------

**************************************************************************************

Host: jacopo-Zenbook-UX562UG-Q508UG

Timers On : Tue Mar 26 17:52:21 2024
Timers Off: Tue Mar 26 17:52:24 2024

Wall Time:        2.79 seconds

                                                       Time (seconds)
Module                                       User      System        Wall        Calls

--------------------------------------------------------------------------------------

**************************************************************************************

Host: jacopo-Zenbook-UX562UG-Q508UG

Timers On : Tue Mar 26 17:54:21 2024
Timers Off: Tue Mar 26 17:54:24 2024

Wall Time:        2.93 seconds

                                                       Time (seconds)
Module                                       User      System        Wall        Calls

--------------------------------------------------------------------------------------

**************************************************************************************

Host: jacopo-Zenbook-UX562UG-Q508UG

Timers On : Tue Mar 26 17:54:43 2024
Timers Off: Tue Mar 26 17:54:46 2024

Wall Time:        2.86 seconds

                                                       Time (seconds)
Module                                       User      System        Wall        Calls

--------------------------------------------------------------------------------------

**************************************************************************************

Host: jacopo-Zenbook-UX562UG-Q508UG

Timers On : Tue Mar 26 17:55:57 2024
Timers Off: Tue Mar 26 17:56:00 2024

Wall Time:        2.88 seconds

                                                       Time (seconds)
Module                                       User      System        Wall        Calls

--------------------------------------------------------------------------------------

**************************************************************************************

Host: jacopo-Zenbook-UX562UG-Q508UG

Timers On : Tue Mar 26 17:57:20 2024
Timers Off: Tue Mar 26 17:57:23 2024

Wall Time:        2.86 seconds

                                                       Time (seconds)
Module                                       User      System        Wall        Calls

--------------------------------------------------------------------------------------

**************************************************************************************

Host: jacopo-Zenbook-UX562UG-Q508UG

Timers On : Tue Mar 26 17:58:52 2024
Timers Off: Tue Mar 26 17:58:55 2024

Wall Time:        2.86 seconds

                                                       Time (seconds)
Module                                       User      System        Wall        Calls

--------------------------------------------------------------------------------------

**************************************************************************************

Host: jacopo-Zenbook-UX562UG-Q508UG

Timers On : Tue Mar 26 17:59:29 2024
Timers Off: Tue Mar 26 17:59:32 2024

Wall Time:        2.79 seconds

                                                       Time (seconds)
Module                                       User      System        Wall        Calls

--------------------------------------------------------------------------------------

**************************************************************************************
