
Host: jacopo-Zenbook-UX562UG-Q508UG

Timers On : Fri Mar 15 19:26:00 2024
Timers Off: Fri Mar 15 19:26:05 2024

Wall Time:        4.48 seconds

                                                       Time (seconds)
Module                                       User      System        Wall        Calls

--------------------------------------------------------------------------------------

**************************************************************************************

Host: jacopo-Zenbook-UX562UG-Q508UG

Timers On : Fri Mar 15 19:48:46 2024
Timers Off: Fri Mar 15 19:48:49 2024

Wall Time:        3.55 seconds

                                                       Time (seconds)
Module                                       User      System        Wall        Calls

--------------------------------------------------------------------------------------

**************************************************************************************

Host: jacopo-Zenbook-UX562UG-Q508UG

Timers On : Fri Mar 15 20:30:47 2024
Timers Off: Fri Mar 15 20:30:50 2024

Wall Time:        3.59 seconds

                                                       Time (seconds)
Module                                       User      System        Wall        Calls

--------------------------------------------------------------------------------------

**************************************************************************************

Host: jacopo-Zenbook-UX562UG-Q508UG

Timers On : Fri Mar 15 20:31:31 2024
Timers Off: Fri Mar 15 20:31:34 2024

Wall Time:        3.50 seconds

                                                       Time (seconds)
Module                                       User      System        Wall        Calls

--------------------------------------------------------------------------------------

**************************************************************************************

Host: jacopo-XPS-8950

Timers On : Sat Mar 16 02:55:04 2024
Timers Off: Sat Mar 16 02:55:04 2024

Wall Time:        0.19 seconds

                                                       Time (seconds)
Module                                       User      System        Wall        Calls

--------------------------------------------------------------------------------------

**************************************************************************************

Host: jacopo-XPS-8950

Timers On : Sat Mar 16 03:42:39 2024
Timers Off: Sat Mar 16 03:42:39 2024

Wall Time:        0.21 seconds

                                                       Time (seconds)
Module                                       User      System        Wall        Calls

--------------------------------------------------------------------------------------

**************************************************************************************

Host: jacopo-XPS-8950

Timers On : Sat Mar 16 03:43:59 2024
Timers Off: Sat Mar 16 03:43:59 2024

Wall Time:        0.79 seconds

                                                       Time (seconds)
Module                                       User      System        Wall        Calls

--------------------------------------------------------------------------------------

**************************************************************************************

Host: jacopo-XPS-8950

Timers On : Sat Mar 16 03:55:26 2024
Timers Off: Sat Mar 16 03:55:27 2024

Wall Time:        0.79 seconds

                                                       Time (seconds)
Module                                       User      System        Wall        Calls

--------------------------------------------------------------------------------------

**************************************************************************************

Host: jacopo-XPS-8950

Timers On : Sat Mar 16 03:57:51 2024
Timers Off: Sat Mar 16 03:57:53 2024

Wall Time:        2.02 seconds

                                                       Time (seconds)
Module                                       User      System        Wall        Calls

--------------------------------------------------------------------------------------

**************************************************************************************

Host: jacopo-XPS-8950

Timers On : Sat Mar 16 04:13:38 2024
Timers Off: Sat Mar 16 04:13:38 2024

Wall Time:        0.14 seconds

                                                       Time (seconds)
Module                                       User      System        Wall        Calls

--------------------------------------------------------------------------------------

**************************************************************************************

Host: jacopo-XPS-8950

Timers On : Sat Mar 16 13:11:09 2024
Timers Off: Sat Mar 16 13:11:11 2024

Wall Time:        2.08 seconds

                                                       Time (seconds)
Module                                       User      System        Wall        Calls

--------------------------------------------------------------------------------------

**************************************************************************************

Host: jacopo-XPS-8950

Timers On : Sat Mar 16 13:12:40 2024
Timers Off: Sat Mar 16 13:12:42 2024

Wall Time:        2.06 seconds

                                                       Time (seconds)
Module                                       User      System        Wall        Calls

--------------------------------------------------------------------------------------

**************************************************************************************
